<?xml version="1.0" encoding="ISO-8859-1"?>
<modeling>
 <generator>
  <i name="program" type="string">vasp </i>
  <i name="version" type="string">5.3.5  </i>
  <i name="subversion" type="string">31Mar14 (build Apr 10 2015 15:15:37) complex                          parallel </i>
  <i name="platform" type="string">Linux-ifort-14-openmpi-1.6.5 </i>
  <i name="date" type="string">2017 10 20 </i>
  <i name="time" type="string">08:39:23 </i>
 </generator>
 <incar>
  <i type="int" name="ISTART">     1</i>
  <i type="string" name="PREC">normal</i>
  <i type="int" name="ISPIN">     2</i>
  <i type="int" name="NELM">   100</i>
  <i type="int" name="IBRION">     2</i>
  <i name="EDIFF">      0.00001000</i>
  <i name="EDIFFG">     -0.01000000</i>
  <i type="int" name="NSW">     0</i>
  <i type="int" name="ISIF">     3</i>
  <i name="ENCUT">    400.00000000</i>
  <i type="int" name="NEDOS">  3000</i>
  <i type="int" name="ISMEAR">     1</i>
  <i name="SIGMA">      0.20000000</i>
  <i type="logical" name="LWAVE"> T  </i>
  <i type="logical" name="LCHARG"> T  </i>
  <i type="logical" name="LVTOT"> T  </i>
  <i type="logical" name="LORBIT"> F  </i>
  <i type="logical" name="LASPH"> T  </i>
  <i type="int" name="NELM">   100</i>
  <i type="string" name="GGA"> PE</i>
  <i type="logical" name="LASPH"> T  </i>
 </incar>
 <kpoints>
  <generation param="Gamma">
   <v type="int" name="divisions">       1        1        1 </v>
   <v name="usershift">      0.00000000       0.00000000       0.00000000 </v>
   <v name="genvec1">      1.00000000       0.00000000       0.00000000 </v>
   <v name="genvec2">      0.00000000       1.00000000       0.00000000 </v>
   <v name="genvec3">      0.00000000       0.00000000       1.00000000 </v>
   <v name="shift">      0.00000000       0.00000000       0.00000000 </v>
  </generation>
  <varray name="kpointlist" >
   <v>       0.00000000       0.00000000       0.00000000 </v>
  </varray>
  <varray name="weights" >
   <v>       1.00000000 </v>
  </varray>
 </kpoints>
 <parameters>
  <separator name="general" >
   <i type="string" name="SYSTEM">unknown system</i>
   <i type="logical" name="LCOMPAT"> F  </i>
  </separator>
  <separator name="electronic" >
   <i type="string" name="PREC">normal</i>
   <i name="ENMAX">    400.00000000</i>
   <i name="ENAUG">    544.56500000</i>
   <i name="EDIFF">      0.00001000</i>
   <i type="int" name="IALGO">    38</i>
   <i type="int" name="IWAVPR">    10</i>
   <i type="int" name="NBANDS">    12</i>
   <i name="NELECT">     10.00000000</i>
   <i type="int" name="TURBO">     0</i>
   <i type="int" name="IRESTART">     0</i>
   <i type="int" name="NREBOOT">     0</i>
   <i type="int" name="NMIN">     0</i>
   <i name="EREF">      0.00000000</i>
   <separator name="electronic smearing" >
    <i type="int" name="ISMEAR">     1</i>
    <i name="SIGMA">      0.20000000</i>
    <i name="KSPACING">      0.50000000</i>
    <i type="logical" name="KGAMMA"> T  </i>
   </separator>
   <separator name="electronic projectors" >
    <i type="logical" name="LREAL"> F  </i>
    <v name="ROPT">      0.00000000</v>
    <i type="int" name="LMAXPAW">  -100</i>
    <i type="int" name="LMAXMIX">     2</i>
    <i type="logical" name="NLSPLINE"> F  </i>
   </separator>
   <separator name="electronic startup" >
    <i type="int" name="ISTART">     1</i>
    <i type="int" name="ICHARG">     0</i>
    <i type="int" name="INIWAV">     1</i>
   </separator>
   <separator name="electronic spin" >
    <i type="int" name="ISPIN">     2</i>
    <i type="logical" name="LNONCOLLINEAR"> F  </i>
    <v name="MAGMOM">      1.00000000</v>
    <i name="NUPDOWN">     -1.00000000</i>
    <i type="logical" name="LSORBIT"> F  </i>
    <v name="SAXIS">      0.00000000      0.00000000      1.00000000</v>
    <i type="logical" name="LSPIRAL"> F  </i>
    <v name="QSPIRAL">      0.00000000      0.00000000      0.00000000</v>
    <i type="logical" name="LZEROZ"> F  </i>
   </separator>
   <separator name="electronic exchange-correlation" >
    <i type="logical" name="LASPH"> T  </i>
    <i type="logical" name="LMETAGGA"> F  </i>
   </separator>
   <separator name="electronic convergence" >
    <i type="int" name="NELM">   100</i>
    <i type="int" name="NELMDL">     0</i>
    <i type="int" name="NELMIN">     2</i>
    <i name="ENINI">    400.00000000</i>
    <separator name="electronic convergence detail" >
     <i type="logical" name="LDIAG"> T  </i>
     <i type="logical" name="LSUBROT"> F  </i>
     <i name="WEIMIN">      0.00000000</i>
     <i name="EBREAK">      0.00000021</i>
     <i name="DEPER">      0.30000000</i>
     <i type="int" name="NRMM">     4</i>
     <i name="TIME">      0.40000000</i>
    </separator>
   </separator>
   <separator name="electronic mixer" >
    <i name="AMIX">      0.40000000</i>
    <i name="BMIX">      1.00000000</i>
    <i name="AMIN">      0.10000000</i>
    <i name="AMIX_MAG">      1.60000000</i>
    <i name="BMIX_MAG">      1.00000000</i>
    <separator name="electronic mixer details" >
     <i type="int" name="IMIX">     4</i>
     <i type="int" name="MAXMIX">   -45</i>
     <i name="WC">    100.00000000</i>
     <i type="int" name="INIMIX">     1</i>
     <i type="int" name="MIXPRE">     1</i>
     <i type="int" name="MREMOVE">     5</i>
    </separator>
   </separator>
   <separator name="electronic dipolcorrection" >
    <i type="logical" name="LDIPOL"> F  </i>
    <i type="logical" name="LMONO"> F  </i>
    <i type="int" name="IDIPOL">     0</i>
    <i name="EPSILON">      1.00000000</i>
    <v name="DIPOL">   -100.00000000   -100.00000000   -100.00000000</v>
    <i name="EFIELD">      0.00000000</i>
   </separator>
  </separator>
  <separator name="grids" >
   <i type="int" name="NGX">    50</i>
   <i type="int" name="NGY">    54</i>
   <i type="int" name="NGZ">    60</i>
   <i type="int" name="NGXF">   100</i>
   <i type="int" name="NGYF">   108</i>
   <i type="int" name="NGZF">   120</i>
   <i type="logical" name="ADDGRID"> F  </i>
  </separator>
  <separator name="ionic" >
   <i type="int" name="NSW">     0</i>
   <i type="int" name="IBRION">    -1</i>
   <i type="int" name="ISIF">     3</i>
   <i name="PSTRESS">      0.00000000</i>
   <i name="EDIFFG">     -0.01000000</i>
   <i type="int" name="NFREE">     1</i>
   <i name="POTIM">      0.50000000</i>
   <i name="SMASS">     -3.00000000</i>
   <i name="SCALEE">      1.00000000</i>
  </separator>
  <separator name="ionic md" >
   <i name="TEBEG">      0.00010000</i>
   <i name="TEEND">      0.00010000</i>
   <i type="int" name="NBLOCK">     1</i>
   <i type="int" name="KBLOCK">     1</i>
   <i type="int" name="NPACO">   256</i>
   <i name="APACO">     16.00000000</i>
  </separator>
  <separator name="symmetry" >
   <i type="int" name="ISYM">     2</i>
   <i name="SYMPREC">      0.00001000</i>
  </separator>
  <separator name="dos" >
   <i type="logical" name="LORBIT"> F  </i>
   <v name="RWIGS">     -1.00000000</v>
   <i type="int" name="NEDOS">  3000</i>
   <i name="EMIN">     10.00000000</i>
   <i name="EMAX">    -10.00000000</i>
   <i name="EFERMI">      0.00000000</i>
  </separator>
  <separator name="writing" >
   <i type="int" name="NWRITE">     2</i>
   <i type="logical" name="LWAVE"> T  </i>
   <i type="logical" name="LCHARG"> T  </i>
   <i type="logical" name="LPARD"> F  </i>
   <i type="logical" name="LVTOT"> T  </i>
   <i type="logical" name="LVHAR"> F  </i>
   <i type="logical" name="LELF"> F  </i>
   <i type="logical" name="LOPTICS"> F  </i>
   <v name="STM">      0.00000000      0.00000000      0.00000000      0.00000000      0.00000000      0.00000000      0.00000000</v>
  </separator>
  <separator name="performance" >
   <i type="int" name="NPAR">    12</i>
   <i type="int" name="NSIM">     4</i>
   <i type="int" name="NBLK">    -1</i>
   <i type="logical" name="LPLANE"> T  </i>
   <i type="logical" name="LSCALAPACK"> T  </i>
   <i type="logical" name="LSCAAWARE"> F  </i>
   <i type="logical" name="LSCALU"> F  </i>
   <i type="logical" name="LASYNC"> F  </i>
   <i type="logical" name="LORBITALREAL"> F  </i>
  </separator>
  <separator name="miscellaneous" >
   <i type="int" name="IDIOT">     3</i>
   <i type="logical" name="LMUSIC"> F  </i>
   <v name="POMASS">     58.69000000</v>
   <v name="DARWINR">      0.00000000</v>
   <v name="DARWINV">      1.00000000</v>
   <i type="logical" name="LCORR"> T  </i>
  </separator>
  <i type="logical" name="GGA_COMPAT"> T  </i>
  <i type="logical" name="LBERRY"> F  </i>
  <i type="int" name="ICORELEVEL">     0</i>
  <i type="logical" name="LDAU"> F  </i>
  <i type="int" name="I_CONSTRAINED_M">     0</i>
  <separator name="electronic exchange-correlation" >
   <i type="string" name="GGA">PE</i>
   <i type="int" name="VOSKOWN">     0</i>
   <i type="logical" name="LHFCALC"> F  </i>
   <i type="string" name="PRECFOCK"></i>
   <i type="logical" name="LSYMGRAD"> F  </i>
   <i type="logical" name="LHFONE"> F  </i>
   <i type="logical" name="LRHFCALC"> F  </i>
   <i type="logical" name="LTHOMAS"> F  </i>
   <i type="logical" name="LMODELHF"> F  </i>
   <i name="ENCUT4O">     -1.00000000</i>
   <i type="int" name="EXXOEP">     0</i>
   <i type="int" name="FOURORBIT">     0</i>
   <i name="AEXX">      0.00000000</i>
   <i name="HFALPHA">      0.00000000</i>
   <i name="MCALPHA">      0.00000000</i>
   <i name="ALDAX">      1.00000000</i>
   <i name="AGGAX">      1.00000000</i>
   <i name="ALDAC">      1.00000000</i>
   <i name="AGGAC">      1.00000000</i>
   <i type="int" name="NKREDX">     1</i>
   <i type="int" name="NKREDY">     1</i>
   <i type="int" name="NKREDZ">     1</i>
   <i type="logical" name="SHIFTRED"> F  </i>
   <i type="logical" name="ODDONLY"> F  </i>
   <i type="logical" name="EVENONLY"> F  </i>
   <i type="int" name="LMAXFOCK">     0</i>
   <i type="int" name="NMAXFOCKAE">     0</i>
   <i type="logical" name="LFOCKAEDFT"> F  </i>
   <i name="HFSCREEN">      0.00000000</i>
   <i name="HFSCREENC">      0.00000000</i>
   <i type="int" name="NBANDSGWLOW">     0</i>
  </separator>
  <separator name="vdW DFT" >
   <i type="logical" name="LUSE_VDW"> F  </i>
   <i name="Zab_VDW">     -0.84910000</i>
   <i name="PARAM1">      0.12340000</i>
   <i name="PARAM2">      1.00000000</i>
   <i name="PARAM3">      0.00000000</i>
  </separator>
  <separator name="model GW" >
   <i type="int" name="MODEL_GW">     0</i>
   <i name="MODEL_EPS0">    792.00000000</i>
   <i name="MODEL_ALPHA">      1.00000000</i>
  </separator>
  <separator name="linear response parameters" >
   <i type="logical" name="LEPSILON"> F  </i>
   <i type="logical" name="LRPA"> F  </i>
   <i type="logical" name="LNABLA"> F  </i>
   <i type="logical" name="LVEL"> F  </i>
   <i type="int" name="KINTER">     0</i>
   <i name="CSHIFT">      0.10000000</i>
   <i name="OMEGAMAX">     -1.00000000</i>
   <i name="DEG_THRESHOLD">      0.00200000</i>
  </separator>
  <separator name="orbital magnetization" >
   <i type="logical" name="NUCIND"> F  </i>
   <v name="MAGPOS">      0.00000000      0.00000000      0.00000000</v>
   <i type="logical" name="LNICSALL"> T  </i>
   <i type="logical" name="ORBITALMAG"> F  </i>
   <i type="logical" name="LMAGBLOCH"> F  </i>
   <i type="logical" name="LCHIMAG"> F  </i>
   <i type="logical" name="LGAUGE"> T  </i>
   <i type="int" name="MAGATOM">     0</i>
   <v name="MAGDIPOL">      0.00000000      0.00000000      0.00000000</v>
   <v name="AVECCONST">      0.00000000      0.00000000      0.00000000</v>
  </separator>
  <separator name="response functions" >
   <i type="logical" name="LADDER"> F  </i>
   <i type="logical" name="LFXC"> F  </i>
   <i type="logical" name="LHARTREE"> T  </i>
   <i type="int" name="IBSE">     0</i>
   <i type="logical" name="LTCTE"> F  </i>
   <i type="logical" name="LTETE"> F  </i>
   <i type="logical" name="LTRIPLET"> F  </i>
   <i type="logical" name="LFXCEPS"> F  </i>
   <i type="logical" name="LFXHEG"> F  </i>
   <i type="logical" name="L2ORDER"> F  </i>
   <i type="logical" name="LUSEW"> F  </i>
   <i name="ENCUTGW">     -2.00000000</i>
   <i name="ENCUTGWSOFT">     -2.00000000</i>
   <i name="ENCUTLF">     -1.00000000</i>
   <i type="int" name="LMAXMP2">    -1</i>
   <i name="SCISSOR">      0.00000000</i>
   <i type="int" name="NOMEGA">     0</i>
   <i type="int" name="NOMEGAR">     0</i>
   <i type="int" name="NBANDSGW">    -1</i>
   <i type="int" name="NBANDSO">    -1</i>
   <i type="int" name="NBANDSV">    -1</i>
   <i type="int" name="NELM">   100</i>
   <i type="int" name="DIM">     3</i>
   <i type="int" name="ANTIRES">     0</i>
   <i name="OMEGAMAX">    -30.00000000</i>
   <i name="OMEGAMIN">    -30.00000000</i>
   <i name="OMEGATL">   -200.00000000</i>
   <i type="int" name="OMEGAGRID">     0</i>
   <i name="CSHIFT">     -0.10000000</i>
   <i type="logical" name="SELFENERGY"> F  </i>
   <i type="logical" name="LSPECTRAL"> F  </i>
   <i type="logical" name="ODDONLYGW"> F  </i>
   <i type="logical" name="EVENONLYGW"> F  </i>
   <i type="int" name="NKREDLFX">     1</i>
   <i type="int" name="NKREDLFY">     1</i>
   <i type="int" name="NKREDLFZ">     1</i>
   <i type="int" name="MAXMEM">  1800</i>
   <i type="int" name="TELESCOPE">     0</i>
   <i type="int" name="TAUPAR">     1</i>
  </separator>
  <separator name="External order field" >
   <i name="OFIELD_KAPPA">      0.00000000</i>
   <v name="OFIELD_K">      0.00000000      0.00000000      0.00000000</v>
   <i name="OFIELD_Q6_NEAR">      0.00000000</i>
   <i name="OFIELD_Q6_FAR">      0.00000000</i>
   <i name="OFIELD_A">      0.00000000</i>
  </separator>
 </parameters>
 <atominfo>
  <atoms>       1 </atoms>
  <types>       1 </types>
  <array name="atoms" >
   <dimension dim="1">ion</dimension>
   <field type="string">element</field>
   <field type="int">atomtype</field>
   <set>
    <rc><c>Ni</c><c>   1</c></rc>
   </set>
  </array>
  <array name="atomtypes" >
   <dimension dim="1">type</dimension>
   <field type="int">atomspertype</field>
   <field type="string">element</field>
   <field>mass</field>
   <field>valence</field>
   <field type="string">pseudopotential</field>
   <set>
    <rc><c>   1</c><c>Ni</c><c>     58.69000000</c><c>     10.00000000</c><c>  PAW_PBE Ni 02Aug2007                  </c></rc>
   </set>
  </array>
 </atominfo>
 <structure name="initialpos" >
  <crystal>
   <varray name="basis" >
    <v>      10.00000000       0.00000000       0.00000000 </v>
    <v>       0.00000000      11.00000000       0.00000000 </v>
    <v>       0.00000000       0.00000000      12.00000000 </v>
   </varray>
   <i name="volume">   1320.00000000 </i>
   <varray name="rec_basis" >
    <v>       0.10000000       0.00000000       0.00000000 </v>
    <v>       0.00000000       0.09090909       0.00000000 </v>
    <v>       0.00000000       0.00000000       0.08333333 </v>
   </varray>
  </crystal>
  <varray name="positions" >
   <v>       0.00000000       0.00000000       0.00000000 </v>
  </varray>
 </structure>
 <calculation>
  <scstep>
   <time name="dav">    0.17    0.26</time>
   <time name="total">    1.36    1.45</time>
   <energy>
    <i name="alphaZ">      0.38635910 </i>
    <i name="ewald">   -184.64093998 </i>
    <i name="hartreedc">   -799.42044530 </i>
    <i name="XCdc">     29.13294946 </i>
    <i name="pawpsdc">    957.20436673 </i>
    <i name="pawaedc">  -1025.35676307 </i>
    <i name="eentropy">     -0.07315856 </i>
    <i name="bandstr">    -55.47508073 </i>
    <i name="atom">   1077.66383713 </i>
    <i name="e_fr_energy">     -0.57887521 </i>
    <i name="e_wo_entrp">     -0.50571665 </i>
    <i name="e_0_energy">     -0.55448903 </i>
   </energy>
  </scstep>
  <scstep>
   <time name="dav">    0.19    0.19</time>
   <time name="total">    1.30    1.30</time>
   <energy>
    <i name="e_fr_energy">     -0.63284369 </i>
    <i name="e_wo_entrp">     -0.57028677 </i>
    <i name="e_0_energy">     -0.61199138 </i>
   </energy>
  </scstep>
  <scstep>
   <time name="dav">    0.28    0.28</time>
   <time name="total">    1.40    1.40</time>
   <energy>
    <i name="e_fr_energy">     -0.52665655 </i>
    <i name="e_wo_entrp">     -0.45589295 </i>
    <i name="e_0_energy">     -0.50306868 </i>
   </energy>
  </scstep>
  <scstep>
   <time name="dav">    0.16    0.16</time>
   <time name="total">    1.32    1.32</time>
   <energy>
    <i name="e_fr_energy">     -0.54641796 </i>
    <i name="e_wo_entrp">     -0.47056242 </i>
    <i name="e_0_energy">     -0.52113278 </i>
   </energy>
  </scstep>
  <scstep>
   <time name="dav">    0.16    0.16</time>
   <time name="total">    1.32    1.32</time>
   <energy>
    <i name="e_fr_energy">     -0.54736042 </i>
    <i name="e_wo_entrp">     -0.45815170 </i>
    <i name="e_0_energy">     -0.51762418 </i>
   </energy>
  </scstep>
  <scstep>
   <time name="dav">    0.19    0.19</time>
   <time name="total">    1.34    1.35</time>
   <energy>
    <i name="e_fr_energy">     -0.54388995 </i>
    <i name="e_wo_entrp">     -0.44694387 </i>
    <i name="e_0_energy">     -0.51157459 </i>
   </energy>
  </scstep>
  <scstep>
   <time name="dav">    0.16    0.16</time>
   <time name="total">    1.32    1.32</time>
   <energy>
    <i name="e_fr_energy">     -0.54503813 </i>
    <i name="e_wo_entrp">     -0.44723485 </i>
    <i name="e_0_energy">     -0.51243704 </i>
   </energy>
  </scstep>
  <scstep>
   <time name="dav">    0.16    0.16</time>
   <time name="total">    1.32    1.32</time>
   <energy>
    <i name="e_fr_energy">     -0.53954116 </i>
    <i name="e_wo_entrp">     -0.44066961 </i>
    <i name="e_0_energy">     -0.50658398 </i>
   </energy>
  </scstep>
  <scstep>
   <time name="dav">    0.16    0.16</time>
   <time name="total">    1.32    1.32</time>
   <energy>
    <i name="e_fr_energy">     -0.54780855 </i>
    <i name="e_wo_entrp">     -0.45081294 </i>
    <i name="e_0_energy">     -0.51547668 </i>
   </energy>
  </scstep>
  <scstep>
   <time name="dav">    0.19    0.19</time>
   <time name="total">    1.36    1.36</time>
   <energy>
    <i name="e_fr_energy">     -0.55518439 </i>
    <i name="e_wo_entrp">     -0.46178175 </i>
    <i name="e_0_energy">     -0.52405017 </i>
   </energy>
  </scstep>
  <scstep>
   <time name="dav">    0.16    0.16</time>
   <time name="total">    1.32    1.32</time>
   <energy>
    <i name="e_fr_energy">     -0.56414806 </i>
    <i name="e_wo_entrp">     -0.47330107 </i>
    <i name="e_0_energy">     -0.53386573 </i>
   </energy>
  </scstep>
  <scstep>
   <time name="dav">    0.20    0.19</time>
   <time name="total">    1.36    1.36</time>
   <energy>
    <i name="e_fr_energy">     -0.56764936 </i>
    <i name="e_wo_entrp">     -0.47880641 </i>
    <i name="e_0_energy">     -0.53803504 </i>
   </energy>
  </scstep>
  <scstep>
   <time name="dav">    0.16    0.16</time>
   <time name="total">    1.33    1.33</time>
   <energy>
    <i name="e_fr_energy">     -0.57347241 </i>
    <i name="e_wo_entrp">     -0.48671214 </i>
    <i name="e_0_energy">     -0.54455232 </i>
   </energy>
  </scstep>
  <scstep>
   <time name="dav">    0.19    0.19</time>
   <time name="total">    1.36    1.36</time>
   <energy>
    <i name="e_fr_energy">     -0.57395927 </i>
    <i name="e_wo_entrp">     -0.48553791 </i>
    <i name="e_0_energy">     -0.54448548 </i>
   </energy>
  </scstep>
  <scstep>
   <time name="dav">    0.16    0.16</time>
   <time name="total">    1.33    1.33</time>
   <energy>
    <i name="e_fr_energy">     -0.57131337 </i>
    <i name="e_wo_entrp">     -0.48080189 </i>
    <i name="e_0_energy">     -0.54114287 </i>
   </energy>
  </scstep>
  <scstep>
   <time name="dav">    0.16    0.16</time>
   <time name="total">    1.32    1.32</time>
   <energy>
    <i name="e_fr_energy">     -0.57128755 </i>
    <i name="e_wo_entrp">     -0.47986800 </i>
    <i name="e_0_energy">     -0.54081437 </i>
   </energy>
  </scstep>
  <scstep>
   <time name="dav">    0.19    0.19</time>
   <time name="total">    1.36    1.35</time>
   <energy>
    <i name="e_fr_energy">     -0.57105358 </i>
    <i name="e_wo_entrp">     -0.47926267 </i>
    <i name="e_0_energy">     -0.54045661 </i>
   </energy>
  </scstep>
  <scstep>
   <time name="dav">    0.16    0.16</time>
   <time name="total">    1.33    1.33</time>
   <energy>
    <i name="e_fr_energy">     -0.57049746 </i>
    <i name="e_wo_entrp">     -0.47857550 </i>
    <i name="e_0_energy">     -0.53985681 </i>
   </energy>
  </scstep>
  <scstep>
   <time name="dav">    0.16    0.16</time>
   <time name="total">    1.33    1.33</time>
   <energy>
    <i name="e_fr_energy">     -0.56923376 </i>
    <i name="e_wo_entrp">     -0.47766297 </i>
    <i name="e_0_energy">     -0.53871016 </i>
   </energy>
  </scstep>
  <scstep>
   <time name="dav">    0.16    0.16</time>
   <time name="total">    1.30    1.30</time>
   <energy>
    <i name="e_fr_energy">     -0.57065971 </i>
    <i name="e_wo_entrp">     -0.48125913 </i>
    <i name="e_0_energy">     -0.54085952 </i>
   </energy>
  </scstep>
  <scstep>
   <time name="dav">    0.19    0.19</time>
   <time name="total">    1.33    1.33</time>
   <energy>
    <i name="e_fr_energy">     -0.57384133 </i>
    <i name="e_wo_entrp">     -0.48580293 </i>
    <i name="e_0_energy">     -0.54449520 </i>
   </energy>
  </scstep>
  <scstep>
   <time name="dav">    0.19    0.19</time>
   <time name="total">    1.34    1.34</time>
   <energy>
    <i name="e_fr_energy">     -0.57429752 </i>
    <i name="e_wo_entrp">     -0.48656139 </i>
    <i name="e_0_energy">     -0.54505214 </i>
   </energy>
  </scstep>
  <scstep>
   <time name="dav">    0.19    0.19</time>
   <time name="total">    1.35    1.35</time>
   <energy>
    <i name="e_fr_energy">     -0.57398978 </i>
    <i name="e_wo_entrp">     -0.48607971 </i>
    <i name="e_0_energy">     -0.54468642 </i>
   </energy>
  </scstep>
  <scstep>
   <time name="dav">    0.19    0.19</time>
   <time name="total">    1.37    1.37</time>
   <energy>
    <i name="e_fr_energy">     -0.57392145 </i>
    <i name="e_wo_entrp">     -0.48509651 </i>
    <i name="e_0_energy">     -0.54431314 </i>
   </energy>
  </scstep>
  <scstep>
   <time name="dav">    0.16    0.16</time>
   <time name="total">    1.34    1.35</time>
   <energy>
    <i name="e_fr_energy">     -0.57402771 </i>
    <i name="e_wo_entrp">     -0.48429885 </i>
    <i name="e_0_energy">     -0.54411809 </i>
   </energy>
  </scstep>
  <scstep>
   <time name="dav">    0.19    0.19</time>
   <time name="total">    1.37    1.37</time>
   <energy>
    <i name="e_fr_energy">     -0.57417857 </i>
    <i name="e_wo_entrp">     -0.48412016 </i>
    <i name="e_0_energy">     -0.54415910 </i>
   </energy>
  </scstep>
  <scstep>
   <time name="dav">    0.16    0.16</time>
   <time name="total">    1.34    1.34</time>
   <energy>
    <i name="e_fr_energy">     -0.57423843 </i>
    <i name="e_wo_entrp">     -0.48384926 </i>
    <i name="e_0_energy">     -0.54410871 </i>
   </energy>
  </scstep>
  <scstep>
   <time name="dav">    0.16    0.16</time>
   <time name="total">    1.34    1.34</time>
   <energy>
    <i name="e_fr_energy">     -0.57468626 </i>
    <i name="e_wo_entrp">     -0.48284031 </i>
    <i name="e_0_energy">     -0.54407094 </i>
   </energy>
  </scstep>
  <scstep>
   <time name="dav">    0.19    0.19</time>
   <time name="total">    1.38    1.38</time>
   <energy>
    <i name="e_fr_energy">     -0.57515257 </i>
    <i name="e_wo_entrp">     -0.48230773 </i>
    <i name="e_0_energy">     -0.54420429 </i>
   </energy>
  </scstep>
  <scstep>
   <time name="dav">    0.16    0.16</time>
   <time name="total">    1.35    1.35</time>
   <energy>
    <i name="e_fr_energy">     -0.57551844 </i>
    <i name="e_wo_entrp">     -0.48205266 </i>
    <i name="e_0_energy">     -0.54436318 </i>
   </energy>
  </scstep>
  <scstep>
   <time name="dav">    0.16    0.16</time>
   <time name="total">    1.35    1.35</time>
   <energy>
    <i name="e_fr_energy">     -0.57558151 </i>
    <i name="e_wo_entrp">     -0.48207353 </i>
    <i name="e_0_energy">     -0.54441218 </i>
   </energy>
  </scstep>
  <scstep>
   <time name="dav">    0.16    0.16</time>
   <time name="total">    1.35    1.35</time>
   <energy>
    <i name="e_fr_energy">     -0.57555906 </i>
    <i name="e_wo_entrp">     -0.48188718 </i>
    <i name="e_0_energy">     -0.54433510 </i>
   </energy>
  </scstep>
  <scstep>
   <time name="dav">    0.16    0.16</time>
   <time name="total">    1.40    1.40</time>
   <energy>
    <i name="e_fr_energy">     -0.57562708 </i>
    <i name="e_wo_entrp">     -0.48237960 </i>
    <i name="e_0_energy">     -0.54454459 </i>
   </energy>
  </scstep>
  <scstep>
   <time name="dav">    0.16    0.16</time>
   <time name="total">    1.40    1.40</time>
   <energy>
    <i name="e_fr_energy">     -0.57567950 </i>
    <i name="e_wo_entrp">     -0.48282882 </i>
    <i name="e_0_energy">     -0.54472927 </i>
   </energy>
  </scstep>
  <scstep>
   <time name="dav">    0.16    0.16</time>
   <time name="total">    1.41    1.41</time>
   <energy>
    <i name="e_fr_energy">     -0.57566227 </i>
    <i name="e_wo_entrp">     -0.48272179 </i>
    <i name="e_0_energy">     -0.54468211 </i>
   </energy>
  </scstep>
  <scstep>
   <time name="dav">    0.16    0.16</time>
   <time name="total">    1.41    1.41</time>
   <energy>
    <i name="e_fr_energy">     -0.57567611 </i>
    <i name="e_wo_entrp">     -0.48240829 </i>
    <i name="e_0_energy">     -0.54458684 </i>
   </energy>
  </scstep>
  <scstep>
   <time name="dav">    0.16    0.16</time>
   <time name="total">    1.41    1.41</time>
   <energy>
    <i name="e_fr_energy">     -0.57569985 </i>
    <i name="e_wo_entrp">     -0.48230721 </i>
    <i name="e_0_energy">     -0.54456897 </i>
   </energy>
  </scstep>
  <scstep>
   <time name="dav">    0.16    0.16</time>
   <time name="total">    1.20    1.20</time>
   <energy>
    <i name="alphaZ">      0.38635910 </i>
    <i name="ewald">   -184.64093998 </i>
    <i name="hartreedc">   -798.93087253 </i>
    <i name="XCdc">     29.10537303 </i>
    <i name="pawpsdc">    956.29555157 </i>
    <i name="pawaedc">  -1024.41141982 </i>
    <i name="eentropy">     -0.09334909 </i>
    <i name="bandstr">    -55.95024051 </i>
    <i name="atom">   1077.66383713 </i>
    <i name="e_fr_energy">     -0.57570110 </i>
    <i name="e_wo_entrp">     -0.48235201 </i>
    <i name="e_0_energy">     -0.54458473 </i>
   </energy>
  </scstep>
  <structure>
   <crystal>
    <varray name="basis" >
     <v>      10.00000000       0.00000000       0.00000000 </v>
     <v>       0.00000000      11.00000000       0.00000000 </v>
     <v>       0.00000000       0.00000000      12.00000000 </v>
    </varray>
    <i name="volume">   1320.00000000 </i>
    <varray name="rec_basis" >
     <v>       0.10000000       0.00000000       0.00000000 </v>
     <v>       0.00000000       0.09090909       0.00000000 </v>
     <v>       0.00000000       0.00000000       0.08333333 </v>
    </varray>
   </crystal>
   <varray name="positions" >
    <v>       0.00000000       0.00000000       0.00000000 </v>
   </varray>
  </structure>
  <varray name="forces" >
   <v>       0.00000000       0.00000000       0.00000000 </v>
  </varray>
  <varray name="stress" >
   <v>       0.02043739       0.00000000       0.00000000 </v>
   <v>      -0.00000000       0.04835495       0.00000000 </v>
   <v>       0.00000000       0.00000000       0.04237266 </v>
  </varray>
  <energy>
   <i name="e_fr_energy">     -0.57570110 </i>
   <i name="e_wo_entrp">     -0.54458473 </i>
   <i name="e_0_energy">     -0.09334909 </i>
  </energy>
  <time name="totalsc">   55.90   56.03</time>
  <eigenvalues>
   <array>
    <dimension dim="1">band</dimension>
    <dimension dim="2">kpoint</dimension>
    <dimension dim="3">spin</dimension>
    <field>eigene</field>
    <field>occ</field>
    <set>
     <set comment="spin 1">
      <set comment="kpoint 1">
       <r>   -6.6102    1.0000 </r>
       <r>   -6.6070    1.0000 </r>
       <r>   -5.8820    1.0000 </r>
       <r>   -5.8818    1.0000 </r>
       <r>   -5.8793    1.0000 </r>
       <r>   -4.6061    0.4556 </r>
       <r>   -0.6251   -0.0000 </r>
       <r>   -0.5983   -0.0000 </r>
       <r>   -0.5554   -0.0000 </r>
       <r>   -0.1170   -0.0000 </r>
       <r>    0.8158   -0.0000 </r>
       <r>    0.9585    0.0000 </r>
      </set>
     </set>
     <set comment="spin 2">
      <set comment="kpoint 1">
       <r>   -5.2712    1.0000 </r>
       <r>   -5.2712    1.0000 </r>
       <r>   -5.2700    1.0000 </r>
       <r>   -4.7051    0.8370 </r>
       <r>   -4.5815    0.3541 </r>
       <r>   -4.5813    0.3532 </r>
       <r>   -0.8199   -0.0000 </r>
       <r>   -0.7950   -0.0000 </r>
       <r>   -0.7523   -0.0000 </r>
       <r>   -0.1977   -0.0000 </r>
       <r>    0.7252   -0.0000 </r>
       <r>    0.8504    0.0000 </r>
      </set>
     </set>
    </set>
   </array>
  </eigenvalues>
  <separator name="orbital magnetization" >
   <v name="MAGDIPOLOUT">      0.00000000      0.00000000      0.00000000</v>
  </separator>
  <dos>
   <i name="efermi">     -4.61659105 </i>
   <total>
    <array>
     <dimension dim="1">gridpoints</dimension>
     <dimension dim="2">spin</dimension>
     <field>energy</field>
     <field>total</field>
     <field>integrated</field>
     <set>
      <set comment="spin 1">
       <r>    -8.6102     0.0000     0.0000 </r>
       <r>    -8.6063     0.0000     0.0000 </r>
       <r>    -8.6024     0.0000     0.0000 </r>
       <r>    -8.5986     0.0000     0.0000 </r>
       <r>    -8.5947     0.0000     0.0000 </r>
       <r>    -8.5909     0.0000     0.0000 </r>
       <r>    -8.5870     0.0000     0.0000 </r>
       <r>    -8.5832     0.0000     0.0000 </r>
       <r>    -8.5793     0.0000     0.0000 </r>
       <r>    -8.5754     0.0000     0.0000 </r>
       <r>    -8.5716     0.0000     0.0000 </r>
       <r>    -8.5677     0.0000     0.0000 </r>
       <r>    -8.5639     0.0000     0.0000 </r>
       <r>    -8.5600     0.0000     0.0000 </r>
       <r>    -8.5561     0.0000     0.0000 </r>
       <r>    -8.5523     0.0000     0.0000 </r>
       <r>    -8.5484     0.0000     0.0000 </r>
       <r>    -8.5446     0.0000     0.0000 </r>
       <r>    -8.5407     0.0000     0.0000 </r>
       <r>    -8.5369     0.0000     0.0000 </r>
       <r>    -8.5330     0.0000     0.0000 </r>
       <r>    -8.5291     0.0000     0.0000 </r>
       <r>    -8.5253     0.0000     0.0000 </r>
       <r>    -8.5214     0.0000     0.0000 </r>
       <r>    -8.5176     0.0000     0.0000 </r>
       <r>    -8.5137     0.0000     0.0000 </r>
       <r>    -8.5099     0.0000     0.0000 </r>
       <r>    -8.5060     0.0000     0.0000 </r>
       <r>    -8.5021     0.0000     0.0000 </r>
       <r>    -8.4983     0.0000     0.0000 </r>
       <r>    -8.4944     0.0000     0.0000 </r>
       <r>    -8.4906     0.0000     0.0000 </r>
       <r>    -8.4867     0.0000     0.0000 </r>
       <r>    -8.4829     0.0000     0.0000 </r>
       <r>    -8.4790     0.0000     0.0000 </r>
       <r>    -8.4751     0.0000     0.0000 </r>
       <r>    -8.4713     0.0000     0.0000 </r>
       <r>    -8.4674     0.0000     0.0000 </r>
       <r>    -8.4636     0.0000     0.0000 </r>
       <r>    -8.4597     0.0000     0.0000 </r>
       <r>    -8.4559     0.0000     0.0000 </r>
       <r>    -8.4520     0.0000     0.0000 </r>
       <r>    -8.4481     0.0000     0.0000 </r>
       <r>    -8.4443     0.0000     0.0000 </r>
       <r>    -8.4404     0.0000     0.0000 </r>
       <r>    -8.4366     0.0000     0.0000 </r>
       <r>    -8.4327     0.0000     0.0000 </r>
       <r>    -8.4289     0.0000     0.0000 </r>
       <r>    -8.4250     0.0000     0.0000 </r>
       <r>    -8.4211     0.0000     0.0000 </r>
       <r>    -8.4173     0.0000     0.0000 </r>
       <r>    -8.4134     0.0000     0.0000 </r>
       <r>    -8.4096     0.0000     0.0000 </r>
       <r>    -8.4057     0.0000     0.0000 </r>
       <r>    -8.4018     0.0000     0.0000 </r>
       <r>    -8.3980     0.0000     0.0000 </r>
       <r>    -8.3941     0.0000     0.0000 </r>
       <r>    -8.3903     0.0000     0.0000 </r>
       <r>    -8.3864     0.0000     0.0000 </r>
       <r>    -8.3826     0.0000     0.0000 </r>
       <r>    -8.3787     0.0000     0.0000 </r>
       <r>    -8.3748     0.0000     0.0000 </r>
       <r>    -8.3710     0.0000     0.0000 </r>
       <r>    -8.3671     0.0000     0.0000 </r>
       <r>    -8.3633     0.0000     0.0000 </r>
       <r>    -8.3594     0.0000     0.0000 </r>
       <r>    -8.3556     0.0000     0.0000 </r>
       <r>    -8.3517     0.0000     0.0000 </r>
       <r>    -8.3478     0.0000     0.0000 </r>
       <r>    -8.3440     0.0000     0.0000 </r>
       <r>    -8.3401     0.0000     0.0000 </r>
       <r>    -8.3363     0.0000     0.0000 </r>
       <r>    -8.3324     0.0000     0.0000 </r>
       <r>    -8.3286     0.0000     0.0000 </r>
       <r>    -8.3247     0.0000     0.0000 </r>
       <r>    -8.3208     0.0000     0.0000 </r>
       <r>    -8.3170     0.0000     0.0000 </r>
       <r>    -8.3131     0.0000     0.0000 </r>
       <r>    -8.3093     0.0000     0.0000 </r>
       <r>    -8.3054     0.0000     0.0000 </r>
       <r>    -8.3016     0.0000     0.0000 </r>
       <r>    -8.2977     0.0000     0.0000 </r>
       <r>    -8.2938     0.0000     0.0000 </r>
       <r>    -8.2900     0.0000     0.0000 </r>
       <r>    -8.2861     0.0000     0.0000 </r>
       <r>    -8.2823     0.0000     0.0000 </r>
       <r>    -8.2784     0.0000     0.0000 </r>
       <r>    -8.2746     0.0000     0.0000 </r>
       <r>    -8.2707     0.0000     0.0000 </r>
       <r>    -8.2668     0.0000     0.0000 </r>
       <r>    -8.2630     0.0000     0.0000 </r>
       <r>    -8.2591     0.0000     0.0000 </r>
       <r>    -8.2553     0.0000     0.0000 </r>
       <r>    -8.2514     0.0000     0.0000 </r>
       <r>    -8.2475     0.0000     0.0000 </r>
       <r>    -8.2437     0.0000     0.0000 </r>
       <r>    -8.2398     0.0000     0.0000 </r>
       <r>    -8.2360     0.0000     0.0000 </r>
       <r>    -8.2321     0.0000     0.0000 </r>
       <r>    -8.2283     0.0000     0.0000 </r>
       <r>    -8.2244     0.0000     0.0000 </r>
       <r>    -8.2205     0.0000     0.0000 </r>
       <r>    -8.2167     0.0000     0.0000 </r>
       <r>    -8.2128    -0.0000    -0.0000 </r>
       <r>    -8.2090    -0.0000    -0.0000 </r>
       <r>    -8.2051    -0.0000    -0.0000 </r>
       <r>    -8.2013    -0.0000    -0.0000 </r>
       <r>    -8.1974    -0.0000    -0.0000 </r>
       <r>    -8.1935    -0.0000    -0.0000 </r>
       <r>    -8.1897    -0.0000    -0.0000 </r>
       <r>    -8.1858    -0.0000    -0.0000 </r>
       <r>    -8.1820    -0.0000    -0.0000 </r>
       <r>    -8.1781    -0.0000    -0.0000 </r>
       <r>    -8.1743    -0.0000    -0.0000 </r>
       <r>    -8.1704    -0.0000    -0.0000 </r>
       <r>    -8.1665    -0.0000    -0.0000 </r>
       <r>    -8.1627    -0.0000    -0.0000 </r>
       <r>    -8.1588    -0.0000    -0.0000 </r>
       <r>    -8.1550    -0.0000    -0.0000 </r>
       <r>    -8.1511    -0.0000    -0.0000 </r>
       <r>    -8.1473    -0.0000    -0.0000 </r>
       <r>    -8.1434    -0.0000    -0.0000 </r>
       <r>    -8.1395    -0.0000    -0.0000 </r>
       <r>    -8.1357    -0.0000    -0.0000 </r>
       <r>    -8.1318    -0.0000    -0.0000 </r>
       <r>    -8.1280    -0.0000    -0.0000 </r>
       <r>    -8.1241    -0.0000    -0.0000 </r>
       <r>    -8.1203    -0.0000    -0.0000 </r>
       <r>    -8.1164    -0.0000    -0.0000 </r>
       <r>    -8.1125    -0.0000    -0.0000 </r>
       <r>    -8.1087    -0.0000    -0.0000 </r>
       <r>    -8.1048    -0.0000    -0.0000 </r>
       <r>    -8.1010    -0.0000    -0.0000 </r>
       <r>    -8.0971    -0.0000    -0.0000 </r>
       <r>    -8.0932    -0.0000    -0.0000 </r>
       <r>    -8.0894    -0.0000    -0.0000 </r>
       <r>    -8.0855    -0.0000    -0.0000 </r>
       <r>    -8.0817    -0.0000    -0.0000 </r>
       <r>    -8.0778    -0.0000    -0.0000 </r>
       <r>    -8.0740    -0.0000    -0.0000 </r>
       <r>    -8.0701    -0.0000    -0.0000 </r>
       <r>    -8.0662    -0.0000    -0.0000 </r>
       <r>    -8.0624    -0.0000    -0.0000 </r>
       <r>    -8.0585    -0.0000    -0.0000 </r>
       <r>    -8.0547    -0.0000    -0.0000 </r>
       <r>    -8.0508    -0.0000    -0.0000 </r>
       <r>    -8.0470    -0.0000    -0.0000 </r>
       <r>    -8.0431    -0.0000    -0.0000 </r>
       <r>    -8.0392    -0.0000    -0.0000 </r>
       <r>    -8.0354    -0.0000    -0.0000 </r>
       <r>    -8.0315    -0.0000    -0.0000 </r>
       <r>    -8.0277    -0.0000    -0.0000 </r>
       <r>    -8.0238    -0.0000    -0.0000 </r>
       <r>    -8.0200    -0.0000    -0.0000 </r>
       <r>    -8.0161    -0.0000    -0.0000 </r>
       <r>    -8.0122    -0.0000    -0.0000 </r>
       <r>    -8.0084    -0.0000    -0.0000 </r>
       <r>    -8.0045    -0.0000    -0.0000 </r>
       <r>    -8.0007    -0.0000    -0.0000 </r>
       <r>    -7.9968    -0.0000    -0.0000 </r>
       <r>    -7.9930    -0.0000    -0.0000 </r>
       <r>    -7.9891    -0.0000    -0.0000 </r>
       <r>    -7.9852    -0.0000    -0.0000 </r>
       <r>    -7.9814    -0.0000    -0.0000 </r>
       <r>    -7.9775    -0.0000    -0.0000 </r>
       <r>    -7.9737    -0.0000    -0.0000 </r>
       <r>    -7.9698    -0.0000    -0.0000 </r>
       <r>    -7.9660    -0.0000    -0.0000 </r>
       <r>    -7.9621    -0.0000    -0.0000 </r>
       <r>    -7.9582    -0.0000    -0.0000 </r>
       <r>    -7.9544    -0.0000    -0.0000 </r>
       <r>    -7.9505    -0.0000    -0.0000 </r>
       <r>    -7.9467    -0.0000    -0.0000 </r>
       <r>    -7.9428    -0.0000    -0.0000 </r>
       <r>    -7.9389    -0.0000    -0.0000 </r>
       <r>    -7.9351    -0.0000    -0.0000 </r>
       <r>    -7.9312    -0.0000    -0.0000 </r>
       <r>    -7.9274    -0.0000    -0.0000 </r>
       <r>    -7.9235    -0.0000    -0.0000 </r>
       <r>    -7.9197    -0.0000    -0.0000 </r>
       <r>    -7.9158    -0.0000    -0.0000 </r>
       <r>    -7.9119    -0.0000    -0.0000 </r>
       <r>    -7.9081    -0.0000    -0.0000 </r>
       <r>    -7.9042    -0.0000    -0.0000 </r>
       <r>    -7.9004    -0.0000    -0.0000 </r>
       <r>    -7.8965    -0.0000    -0.0000 </r>
       <r>    -7.8927    -0.0000    -0.0000 </r>
       <r>    -7.8888    -0.0000    -0.0000 </r>
       <r>    -7.8849    -0.0000    -0.0000 </r>
       <r>    -7.8811    -0.0000    -0.0000 </r>
       <r>    -7.8772    -0.0000    -0.0000 </r>
       <r>    -7.8734    -0.0000    -0.0000 </r>
       <r>    -7.8695    -0.0000    -0.0000 </r>
       <r>    -7.8657    -0.0000    -0.0000 </r>
       <r>    -7.8618    -0.0000    -0.0000 </r>
       <r>    -7.8579    -0.0000    -0.0000 </r>
       <r>    -7.8541    -0.0000    -0.0000 </r>
       <r>    -7.8502    -0.0000    -0.0000 </r>
       <r>    -7.8464    -0.0000    -0.0000 </r>
       <r>    -7.8425    -0.0000    -0.0000 </r>
       <r>    -7.8387    -0.0000    -0.0000 </r>
       <r>    -7.8348    -0.0000    -0.0000 </r>
       <r>    -7.8309    -0.0000    -0.0000 </r>
       <r>    -7.8271    -0.0000    -0.0000 </r>
       <r>    -7.8232    -0.0000    -0.0000 </r>
       <r>    -7.8194    -0.0000    -0.0000 </r>
       <r>    -7.8155    -0.0000    -0.0000 </r>
       <r>    -7.8117    -0.0000    -0.0000 </r>
       <r>    -7.8078    -0.0000    -0.0000 </r>
       <r>    -7.8039    -0.0000    -0.0000 </r>
       <r>    -7.8001    -0.0000    -0.0000 </r>
       <r>    -7.7962    -0.0000    -0.0000 </r>
       <r>    -7.7924    -0.0000    -0.0000 </r>
       <r>    -7.7885    -0.0000    -0.0000 </r>
       <r>    -7.7846    -0.0000    -0.0000 </r>
       <r>    -7.7808    -0.0000    -0.0000 </r>
       <r>    -7.7769    -0.0000    -0.0000 </r>
       <r>    -7.7731    -0.0000    -0.0000 </r>
       <r>    -7.7692    -0.0000    -0.0000 </r>
       <r>    -7.7654    -0.0000    -0.0000 </r>
       <r>    -7.7615    -0.0000    -0.0000 </r>
       <r>    -7.7576    -0.0000    -0.0000 </r>
       <r>    -7.7538    -0.0000    -0.0000 </r>
       <r>    -7.7499    -0.0000    -0.0000 </r>
       <r>    -7.7461    -0.0000    -0.0000 </r>
       <r>    -7.7422    -0.0000    -0.0000 </r>
       <r>    -7.7384    -0.0000    -0.0000 </r>
       <r>    -7.7345    -0.0000    -0.0000 </r>
       <r>    -7.7306    -0.0000    -0.0000 </r>
       <r>    -7.7268    -0.0000    -0.0000 </r>
       <r>    -7.7229    -0.0000    -0.0000 </r>
       <r>    -7.7191    -0.0000    -0.0000 </r>
       <r>    -7.7152    -0.0000    -0.0000 </r>
       <r>    -7.7114    -0.0000    -0.0000 </r>
       <r>    -7.7075    -0.0000    -0.0000 </r>
       <r>    -7.7036    -0.0000    -0.0000 </r>
       <r>    -7.6998    -0.0000    -0.0000 </r>
       <r>    -7.6959    -0.0000    -0.0000 </r>
       <r>    -7.6921    -0.0000    -0.0000 </r>
       <r>    -7.6882    -0.0000    -0.0000 </r>
       <r>    -7.6844    -0.0000    -0.0000 </r>
       <r>    -7.6805    -0.0000    -0.0000 </r>
       <r>    -7.6766    -0.0000    -0.0000 </r>
       <r>    -7.6728    -0.0000    -0.0000 </r>
       <r>    -7.6689    -0.0000    -0.0000 </r>
       <r>    -7.6651    -0.0000    -0.0000 </r>
       <r>    -7.6612    -0.0000    -0.0000 </r>
       <r>    -7.6574    -0.0000    -0.0000 </r>
       <r>    -7.6535    -0.0000    -0.0000 </r>
       <r>    -7.6496    -0.0000    -0.0000 </r>
       <r>    -7.6458    -0.0000    -0.0000 </r>
       <r>    -7.6419    -0.0000    -0.0000 </r>
       <r>    -7.6381    -0.0000    -0.0000 </r>
       <r>    -7.6342    -0.0000    -0.0000 </r>
       <r>    -7.6304    -0.0000    -0.0000 </r>
       <r>    -7.6265    -0.0000    -0.0000 </r>
       <r>    -7.6226    -0.0000    -0.0000 </r>
       <r>    -7.6188    -0.0000    -0.0000 </r>
       <r>    -7.6149    -0.0000    -0.0000 </r>
       <r>    -7.6111    -0.0000    -0.0000 </r>
       <r>    -7.6072    -0.0000    -0.0000 </r>
       <r>    -7.6033    -0.0000    -0.0000 </r>
       <r>    -7.5995    -0.0000    -0.0000 </r>
       <r>    -7.5956    -0.0000    -0.0000 </r>
       <r>    -7.5918    -0.0000    -0.0000 </r>
       <r>    -7.5879    -0.0000    -0.0000 </r>
       <r>    -7.5841    -0.0000    -0.0000 </r>
       <r>    -7.5802    -0.0000    -0.0000 </r>
       <r>    -7.5763    -0.0000    -0.0000 </r>
       <r>    -7.5725    -0.0000    -0.0000 </r>
       <r>    -7.5686    -0.0000    -0.0000 </r>
       <r>    -7.5648    -0.0000    -0.0000 </r>
       <r>    -7.5609    -0.0000    -0.0000 </r>
       <r>    -7.5571    -0.0000    -0.0000 </r>
       <r>    -7.5532    -0.0000    -0.0000 </r>
       <r>    -7.5493    -0.0000    -0.0000 </r>
       <r>    -7.5455    -0.0000    -0.0000 </r>
       <r>    -7.5416    -0.0000    -0.0000 </r>
       <r>    -7.5378    -0.0000    -0.0000 </r>
       <r>    -7.5339    -0.0000    -0.0000 </r>
       <r>    -7.5301    -0.0000    -0.0000 </r>
       <r>    -7.5262    -0.0000    -0.0000 </r>
       <r>    -7.5223    -0.0000    -0.0000 </r>
       <r>    -7.5185    -0.0000    -0.0000 </r>
       <r>    -7.5146    -0.0000    -0.0000 </r>
       <r>    -7.5108    -0.0000    -0.0000 </r>
       <r>    -7.5069    -0.0000    -0.0000 </r>
       <r>    -7.5031    -0.0000    -0.0000 </r>
       <r>    -7.4992    -0.0000    -0.0000 </r>
       <r>    -7.4953    -0.0000    -0.0000 </r>
       <r>    -7.4915    -0.0000    -0.0000 </r>
       <r>    -7.4876    -0.0000    -0.0000 </r>
       <r>    -7.4838    -0.0000    -0.0000 </r>
       <r>    -7.4799    -0.0000    -0.0000 </r>
       <r>    -7.4761    -0.0000    -0.0000 </r>
       <r>    -7.4722    -0.0000    -0.0000 </r>
       <r>    -7.4683    -0.0000    -0.0000 </r>
       <r>    -7.4645    -0.0000    -0.0000 </r>
       <r>    -7.4606    -0.0000    -0.0000 </r>
       <r>    -7.4568    -0.0000    -0.0000 </r>
       <r>    -7.4529    -0.0000    -0.0000 </r>
       <r>    -7.4490    -0.0000    -0.0000 </r>
       <r>    -7.4452    -0.0000    -0.0000 </r>
       <r>    -7.4413    -0.0000    -0.0000 </r>
       <r>    -7.4375    -0.0000    -0.0000 </r>
       <r>    -7.4336    -0.0000    -0.0000 </r>
       <r>    -7.4298    -0.0000    -0.0000 </r>
       <r>    -7.4259    -0.0000    -0.0000 </r>
       <r>    -7.4220    -0.0000    -0.0000 </r>
       <r>    -7.4182    -0.0000    -0.0000 </r>
       <r>    -7.4143    -0.0000    -0.0000 </r>
       <r>    -7.4105    -0.0000    -0.0000 </r>
       <r>    -7.4066    -0.0000    -0.0000 </r>
       <r>    -7.4028    -0.0000    -0.0000 </r>
       <r>    -7.3989    -0.0000    -0.0000 </r>
       <r>    -7.3950    -0.0000    -0.0000 </r>
       <r>    -7.3912    -0.0000    -0.0000 </r>
       <r>    -7.3873    -0.0000    -0.0000 </r>
       <r>    -7.3835    -0.0000    -0.0000 </r>
       <r>    -7.3796    -0.0000    -0.0000 </r>
       <r>    -7.3758    -0.0000    -0.0000 </r>
       <r>    -7.3719    -0.0000    -0.0000 </r>
       <r>    -7.3680    -0.0000    -0.0000 </r>
       <r>    -7.3642    -0.0000    -0.0000 </r>
       <r>    -7.3603    -0.0000    -0.0000 </r>
       <r>    -7.3565    -0.0001    -0.0000 </r>
       <r>    -7.3526    -0.0001    -0.0000 </r>
       <r>    -7.3488    -0.0001    -0.0000 </r>
       <r>    -7.3449    -0.0001    -0.0000 </r>
       <r>    -7.3410    -0.0001    -0.0000 </r>
       <r>    -7.3372    -0.0001    -0.0000 </r>
       <r>    -7.3333    -0.0001    -0.0000 </r>
       <r>    -7.3295    -0.0001    -0.0000 </r>
       <r>    -7.3256    -0.0002    -0.0000 </r>
       <r>    -7.3218    -0.0002    -0.0000 </r>
       <r>    -7.3179    -0.0002    -0.0000 </r>
       <r>    -7.3140    -0.0002    -0.0000 </r>
       <r>    -7.3102    -0.0003    -0.0000 </r>
       <r>    -7.3063    -0.0003    -0.0000 </r>
       <r>    -7.3025    -0.0003    -0.0000 </r>
       <r>    -7.2986    -0.0004    -0.0000 </r>
       <r>    -7.2947    -0.0004    -0.0000 </r>
       <r>    -7.2909    -0.0005    -0.0000 </r>
       <r>    -7.2870    -0.0005    -0.0000 </r>
       <r>    -7.2832    -0.0006    -0.0000 </r>
       <r>    -7.2793    -0.0007    -0.0000 </r>
       <r>    -7.2755    -0.0008    -0.0000 </r>
       <r>    -7.2716    -0.0009    -0.0000 </r>
       <r>    -7.2677    -0.0010    -0.0000 </r>
       <r>    -7.2639    -0.0011    -0.0000 </r>
       <r>    -7.2600    -0.0012    -0.0000 </r>
       <r>    -7.2562    -0.0013    -0.0000 </r>
       <r>    -7.2523    -0.0015    -0.0001 </r>
       <r>    -7.2485    -0.0017    -0.0001 </r>
       <r>    -7.2446    -0.0019    -0.0001 </r>
       <r>    -7.2407    -0.0021    -0.0001 </r>
       <r>    -7.2369    -0.0023    -0.0001 </r>
       <r>    -7.2330    -0.0026    -0.0001 </r>
       <r>    -7.2292    -0.0029    -0.0001 </r>
       <r>    -7.2253    -0.0032    -0.0001 </r>
       <r>    -7.2215    -0.0035    -0.0001 </r>
       <r>    -7.2176    -0.0039    -0.0001 </r>
       <r>    -7.2137    -0.0043    -0.0002 </r>
       <r>    -7.2099    -0.0048    -0.0002 </r>
       <r>    -7.2060    -0.0053    -0.0002 </r>
       <r>    -7.2022    -0.0059    -0.0002 </r>
       <r>    -7.1983    -0.0065    -0.0002 </r>
       <r>    -7.1945    -0.0071    -0.0003 </r>
       <r>    -7.1906    -0.0079    -0.0003 </r>
       <r>    -7.1867    -0.0087    -0.0003 </r>
       <r>    -7.1829    -0.0095    -0.0004 </r>
       <r>    -7.1790    -0.0105    -0.0004 </r>
       <r>    -7.1752    -0.0115    -0.0005 </r>
       <r>    -7.1713    -0.0126    -0.0005 </r>
       <r>    -7.1675    -0.0138    -0.0006 </r>
       <r>    -7.1636    -0.0151    -0.0006 </r>
       <r>    -7.1597    -0.0166    -0.0007 </r>
       <r>    -7.1559    -0.0181    -0.0008 </r>
       <r>    -7.1520    -0.0198    -0.0008 </r>
       <r>    -7.1482    -0.0216    -0.0009 </r>
       <r>    -7.1443    -0.0235    -0.0010 </r>
       <r>    -7.1404    -0.0256    -0.0011 </r>
       <r>    -7.1366    -0.0278    -0.0012 </r>
       <r>    -7.1327    -0.0302    -0.0013 </r>
       <r>    -7.1289    -0.0328    -0.0015 </r>
       <r>    -7.1250    -0.0356    -0.0016 </r>
       <r>    -7.1212    -0.0386    -0.0017 </r>
       <r>    -7.1173    -0.0418    -0.0019 </r>
       <r>    -7.1134    -0.0452    -0.0021 </r>
       <r>    -7.1096    -0.0488    -0.0023 </r>
       <r>    -7.1057    -0.0527    -0.0025 </r>
       <r>    -7.1019    -0.0568    -0.0027 </r>
       <r>    -7.0980    -0.0612    -0.0029 </r>
       <r>    -7.0942    -0.0659    -0.0032 </r>
       <r>    -7.0903    -0.0708    -0.0035 </r>
       <r>    -7.0864    -0.0760    -0.0037 </r>
       <r>    -7.0826    -0.0816    -0.0041 </r>
       <r>    -7.0787    -0.0874    -0.0044 </r>
       <r>    -7.0749    -0.0936    -0.0048 </r>
       <r>    -7.0710    -0.1001    -0.0051 </r>
       <r>    -7.0672    -0.1069    -0.0056 </r>
       <r>    -7.0633    -0.1141    -0.0060 </r>
       <r>    -7.0594    -0.1216    -0.0065 </r>
       <r>    -7.0556    -0.1294    -0.0070 </r>
       <r>    -7.0517    -0.1377    -0.0075 </r>
       <r>    -7.0479    -0.1462    -0.0081 </r>
       <r>    -7.0440    -0.1552    -0.0087 </r>
       <r>    -7.0402    -0.1644    -0.0093 </r>
       <r>    -7.0363    -0.1740    -0.0100 </r>
       <r>    -7.0324    -0.1840    -0.0107 </r>
       <r>    -7.0286    -0.1943    -0.0114 </r>
       <r>    -7.0247    -0.2049    -0.0122 </r>
       <r>    -7.0209    -0.2158    -0.0130 </r>
       <r>    -7.0170    -0.2270    -0.0139 </r>
       <r>    -7.0132    -0.2385    -0.0148 </r>
       <r>    -7.0093    -0.2502    -0.0158 </r>
       <r>    -7.0054    -0.2621    -0.0168 </r>
       <r>    -7.0016    -0.2742    -0.0179 </r>
       <r>    -6.9977    -0.2864    -0.0190 </r>
       <r>    -6.9939    -0.2988    -0.0201 </r>
       <r>    -6.9900    -0.3112    -0.0213 </r>
       <r>    -6.9861    -0.3236    -0.0226 </r>
       <r>    -6.9823    -0.3360    -0.0239 </r>
       <r>    -6.9784    -0.3482    -0.0252 </r>
       <r>    -6.9746    -0.3603    -0.0266 </r>
       <r>    -6.9707    -0.3722    -0.0280 </r>
       <r>    -6.9669    -0.3838    -0.0295 </r>
       <r>    -6.9630    -0.3949    -0.0310 </r>
       <r>    -6.9591    -0.4056    -0.0326 </r>
       <r>    -6.9553    -0.4157    -0.0342 </r>
       <r>    -6.9514    -0.4251    -0.0359 </r>
       <r>    -6.9476    -0.4338    -0.0375 </r>
       <r>    -6.9437    -0.4415    -0.0392 </r>
       <r>    -6.9399    -0.4483    -0.0410 </r>
       <r>    -6.9360    -0.4539    -0.0427 </r>
       <r>    -6.9321    -0.4583    -0.0445 </r>
       <r>    -6.9283    -0.4613    -0.0463 </r>
       <r>    -6.9244    -0.4628    -0.0480 </r>
       <r>    -6.9206    -0.4626    -0.0498 </r>
       <r>    -6.9167    -0.4606    -0.0516 </r>
       <r>    -6.9129    -0.4566    -0.0534 </r>
       <r>    -6.9090    -0.4505    -0.0551 </r>
       <r>    -6.9051    -0.4422    -0.0568 </r>
       <r>    -6.9013    -0.4314    -0.0585 </r>
       <r>    -6.8974    -0.4179    -0.0601 </r>
       <r>    -6.8936    -0.4018    -0.0616 </r>
       <r>    -6.8897    -0.3826    -0.0631 </r>
       <r>    -6.8859    -0.3604    -0.0645 </r>
       <r>    -6.8820    -0.3349    -0.0658 </r>
       <r>    -6.8781    -0.3059    -0.0670 </r>
       <r>    -6.8743    -0.2733    -0.0680 </r>
       <r>    -6.8704    -0.2369    -0.0689 </r>
       <r>    -6.8666    -0.1965    -0.0697 </r>
       <r>    -6.8627    -0.1521    -0.0703 </r>
       <r>    -6.8589    -0.1033    -0.0707 </r>
       <r>    -6.8550    -0.0502    -0.0709 </r>
       <r>    -6.8511     0.0075    -0.0709 </r>
       <r>    -6.8473     0.0699    -0.0706 </r>
       <r>    -6.8434     0.1372    -0.0701 </r>
       <r>    -6.8396     0.2094    -0.0692 </r>
       <r>    -6.8357     0.2866    -0.0681 </r>
       <r>    -6.8318     0.3689    -0.0667 </r>
       <r>    -6.8280     0.4565    -0.0650 </r>
       <r>    -6.8241     0.5494    -0.0628 </r>
       <r>    -6.8203     0.6477    -0.0603 </r>
       <r>    -6.8164     0.7513    -0.0574 </r>
       <r>    -6.8126     0.8604    -0.0541 </r>
       <r>    -6.8087     0.9748    -0.0504 </r>
       <r>    -6.8048     1.0947    -0.0461 </r>
       <r>    -6.8010     1.2200    -0.0414 </r>
       <r>    -6.7971     1.3506    -0.0362 </r>
       <r>    -6.7933     1.4865    -0.0305 </r>
       <r>    -6.7894     1.6276    -0.0242 </r>
       <r>    -6.7856     1.7737    -0.0174 </r>
       <r>    -6.7817     1.9248    -0.0099 </r>
       <r>    -6.7778     2.0807    -0.0019 </r>
       <r>    -6.7740     2.2411     0.0067 </r>
       <r>    -6.7701     2.4060     0.0160 </r>
       <r>    -6.7663     2.5751     0.0259 </r>
       <r>    -6.7624     2.7481     0.0365 </r>
       <r>    -6.7586     2.9249     0.0478 </r>
       <r>    -6.7547     3.1050     0.0598 </r>
       <r>    -6.7508     3.2883     0.0725 </r>
       <r>    -6.7470     3.4743     0.0859 </r>
       <r>    -6.7431     3.6628     0.1000 </r>
       <r>    -6.7393     3.8534     0.1149 </r>
       <r>    -6.7354     4.0457     0.1305 </r>
       <r>    -6.7316     4.2393     0.1468 </r>
       <r>    -6.7277     4.4338     0.1639 </r>
       <r>    -6.7238     4.6287     0.1818 </r>
       <r>    -6.7200     4.8237     0.2004 </r>
       <r>    -6.7161     5.0183     0.2198 </r>
       <r>    -6.7123     5.2120     0.2399 </r>
       <r>    -6.7084     5.4043     0.2607 </r>
       <r>    -6.7046     5.5948     0.2823 </r>
       <r>    -6.7007     5.7830     0.3046 </r>
       <r>    -6.6968     5.9685     0.3276 </r>
       <r>    -6.6930     6.1506     0.3514 </r>
       <r>    -6.6891     6.3290     0.3758 </r>
       <r>    -6.6853     6.5032     0.4009 </r>
       <r>    -6.6814     6.6726     0.4266 </r>
       <r>    -6.6775     6.8369     0.4530 </r>
       <r>    -6.6737     6.9955     0.4800 </r>
       <r>    -6.6698     7.1480     0.5075 </r>
       <r>    -6.6660     7.2940     0.5357 </r>
       <r>    -6.6621     7.4330     0.5643 </r>
       <r>    -6.6583     7.5646     0.5935 </r>
       <r>    -6.6544     7.6885     0.6232 </r>
       <r>    -6.6505     7.8043     0.6533 </r>
       <r>    -6.6467     7.9116     0.6838 </r>
       <r>    -6.6428     8.0101     0.7147 </r>
       <r>    -6.6390     8.0995     0.7459 </r>
       <r>    -6.6351     8.1796     0.7775 </r>
       <r>    -6.6313     8.2500     0.8093 </r>
       <r>    -6.6274     8.3106     0.8414 </r>
       <r>    -6.6235     8.3611     0.8736 </r>
       <r>    -6.6197     8.4015     0.9060 </r>
       <r>    -6.6158     8.4316     0.9386 </r>
       <r>    -6.6120     8.4513     0.9712 </r>
       <r>    -6.6081     8.4606     1.0038 </r>
       <r>    -6.6043     8.4593     1.0364 </r>
       <r>    -6.6004     8.4476     1.0690 </r>
       <r>    -6.5965     8.4254     1.1015 </r>
       <r>    -6.5927     8.3929     1.1339 </r>
       <r>    -6.5888     8.3500     1.1661 </r>
       <r>    -6.5850     8.2970     1.1981 </r>
       <r>    -6.5811     8.2341     1.2299 </r>
       <r>    -6.5773     8.1613     1.2614 </r>
       <r>    -6.5734     8.0790     1.2925 </r>
       <r>    -6.5695     7.9874     1.3233 </r>
       <r>    -6.5657     7.8867     1.3538 </r>
       <r>    -6.5618     7.7773     1.3838 </r>
       <r>    -6.5580     7.6595     1.4133 </r>
       <r>    -6.5541     7.5337     1.4424 </r>
       <r>    -6.5503     7.4001     1.4709 </r>
       <r>    -6.5464     7.2593     1.4989 </r>
       <r>    -6.5425     7.1116     1.5264 </r>
       <r>    -6.5387     6.9575     1.5532 </r>
       <r>    -6.5348     6.7973     1.5794 </r>
       <r>    -6.5310     6.6316     1.6050 </r>
       <r>    -6.5271     6.4608     1.6299 </r>
       <r>    -6.5232     6.2854     1.6542 </r>
       <r>    -6.5194     6.1058     1.6777 </r>
       <r>    -6.5155     5.9225     1.7006 </r>
       <r>    -6.5117     5.7361     1.7227 </r>
       <r>    -6.5078     5.5469     1.7441 </r>
       <r>    -6.5040     5.3555     1.7647 </r>
       <r>    -6.5001     5.1624     1.7847 </r>
       <r>    -6.4962     4.9679     1.8038 </r>
       <r>    -6.4924     4.7727     1.8222 </r>
       <r>    -6.4885     4.5770     1.8399 </r>
       <r>    -6.4847     4.3815     1.8568 </r>
       <r>    -6.4808     4.1865     1.8729 </r>
       <r>    -6.4770     3.9924     1.8883 </r>
       <r>    -6.4731     3.7996     1.9030 </r>
       <r>    -6.4692     3.6085     1.9169 </r>
       <r>    -6.4654     3.4195     1.9301 </r>
       <r>    -6.4615     3.2330     1.9426 </r>
       <r>    -6.4577     3.0492     1.9543 </r>
       <r>    -6.4538     2.8684     1.9654 </r>
       <r>    -6.4500     2.6911     1.9758 </r>
       <r>    -6.4461     2.5174     1.9855 </r>
       <r>    -6.4422     2.3475     1.9945 </r>
       <r>    -6.4384     2.1818     2.0030 </r>
       <r>    -6.4345     2.0203     2.0108 </r>
       <r>    -6.4307     1.8634     2.0179 </r>
       <r>    -6.4268     1.7110     2.0245 </r>
       <r>    -6.4230     1.5635     2.0306 </r>
       <r>    -6.4191     1.4209     2.0361 </r>
       <r>    -6.4152     1.2832     2.0410 </r>
       <r>    -6.4114     1.1506     2.0454 </r>
       <r>    -6.4075     1.0231     2.0494 </r>
       <r>    -6.4037     0.9008     2.0529 </r>
       <r>    -6.3998     0.7836     2.0559 </r>
       <r>    -6.3960     0.6715     2.0585 </r>
       <r>    -6.3921     0.5645     2.0607 </r>
       <r>    -6.3882     0.4626     2.0624 </r>
       <r>    -6.3844     0.3657     2.0639 </r>
       <r>    -6.3805     0.2738     2.0649 </r>
       <r>    -6.3767     0.1867     2.0656 </r>
       <r>    -6.3728     0.1043     2.0660 </r>
       <r>    -6.3689     0.0265     2.0661 </r>
       <r>    -6.3651    -0.0467     2.0660 </r>
       <r>    -6.3612    -0.1156     2.0655 </r>
       <r>    -6.3574    -0.1803     2.0648 </r>
       <r>    -6.3535    -0.2408     2.0639 </r>
       <r>    -6.3497    -0.2975     2.0627 </r>
       <r>    -6.3458    -0.3504     2.0614 </r>
       <r>    -6.3419    -0.3998     2.0598 </r>
       <r>    -6.3381    -0.4457     2.0581 </r>
       <r>    -6.3342    -0.4884     2.0562 </r>
       <r>    -6.3304    -0.5281     2.0542 </r>
       <r>    -6.3265    -0.5648     2.0520 </r>
       <r>    -6.3227    -0.5989     2.0497 </r>
       <r>    -6.3188    -0.6304     2.0473 </r>
       <r>    -6.3149    -0.6595     2.0447 </r>
       <r>    -6.3111    -0.6864     2.0421 </r>
       <r>    -6.3072    -0.7112     2.0393 </r>
       <r>    -6.3034    -0.7342     2.0365 </r>
       <r>    -6.2995    -0.7554     2.0336 </r>
       <r>    -6.2957    -0.7750     2.0306 </r>
       <r>    -6.2918    -0.7931     2.0276 </r>
       <r>    -6.2879    -0.8098     2.0244 </r>
       <r>    -6.2841    -0.8253     2.0212 </r>
       <r>    -6.2802    -0.8397     2.0180 </r>
       <r>    -6.2764    -0.8530     2.0147 </r>
       <r>    -6.2725    -0.8653     2.0114 </r>
       <r>    -6.2687    -0.8767     2.0080 </r>
       <r>    -6.2648    -0.8873     2.0046 </r>
       <r>    -6.2609    -0.8971     2.0011 </r>
       <r>    -6.2571    -0.9061     1.9976 </r>
       <r>    -6.2532    -0.9144     1.9941 </r>
       <r>    -6.2494    -0.9219     1.9905 </r>
       <r>    -6.2455    -0.9287     1.9870 </r>
       <r>    -6.2417    -0.9347     1.9833 </r>
       <r>    -6.2378    -0.9399     1.9797 </r>
       <r>    -6.2339    -0.9442     1.9761 </r>
       <r>    -6.2301    -0.9476     1.9724 </r>
       <r>    -6.2262    -0.9500     1.9688 </r>
       <r>    -6.2224    -0.9513     1.9651 </r>
       <r>    -6.2185    -0.9513     1.9614 </r>
       <r>    -6.2146    -0.9501     1.9578 </r>
       <r>    -6.2108    -0.9474     1.9541 </r>
       <r>    -6.2069    -0.9431     1.9505 </r>
       <r>    -6.2031    -0.9370     1.9468 </r>
       <r>    -6.1992    -0.9290     1.9433 </r>
       <r>    -6.1954    -0.9188     1.9397 </r>
       <r>    -6.1915    -0.9064     1.9362 </r>
       <r>    -6.1876    -0.8914     1.9328 </r>
       <r>    -6.1838    -0.8737     1.9294 </r>
       <r>    -6.1799    -0.8530     1.9261 </r>
       <r>    -6.1761    -0.8292     1.9229 </r>
       <r>    -6.1722    -0.8020     1.9198 </r>
       <r>    -6.1684    -0.7710     1.9169 </r>
       <r>    -6.1645    -0.7362     1.9140 </r>
       <r>    -6.1606    -0.6972     1.9113 </r>
       <r>    -6.1568    -0.6538     1.9088 </r>
       <r>    -6.1529    -0.6057     1.9065 </r>
       <r>    -6.1491    -0.5527     1.9043 </r>
       <r>    -6.1452    -0.4945     1.9024 </r>
       <r>    -6.1414    -0.4309     1.9008 </r>
       <r>    -6.1375    -0.3615     1.8994 </r>
       <r>    -6.1336    -0.2862     1.8983 </r>
       <r>    -6.1298    -0.2048     1.8975 </r>
       <r>    -6.1259    -0.1169     1.8970 </r>
       <r>    -6.1221    -0.0224     1.8969 </r>
       <r>    -6.1182     0.0789     1.8972 </r>
       <r>    -6.1144     0.1872     1.8980 </r>
       <r>    -6.1105     0.3028     1.8991 </r>
       <r>    -6.1066     0.4257     1.9008 </r>
       <r>    -6.1028     0.5561     1.9029 </r>
       <r>    -6.0989     0.6942     1.9056 </r>
       <r>    -6.0951     0.8401     1.9088 </r>
       <r>    -6.0912     0.9938     1.9127 </r>
       <r>    -6.0874     1.1554     1.9171 </r>
       <r>    -6.0835     1.3249     1.9222 </r>
       <r>    -6.0796     1.5024     1.9280 </r>
       <r>    -6.0758     1.6878     1.9345 </r>
       <r>    -6.0719     1.8811     1.9418 </r>
       <r>    -6.0681     2.0822     1.9498 </r>
       <r>    -6.0642     2.2911     1.9587 </r>
       <r>    -6.0604     2.5075     1.9683 </r>
       <r>    -6.0565     2.7312     1.9789 </r>
       <r>    -6.0526     2.9622     1.9903 </r>
       <r>    -6.0488     3.2002     2.0027 </r>
       <r>    -6.0449     3.4449     2.0159 </r>
       <r>    -6.0411     3.6959     2.0302 </r>
       <r>    -6.0372     3.9530     2.0454 </r>
       <r>    -6.0333     4.2159     2.0617 </r>
       <r>    -6.0295     4.4840     2.0790 </r>
       <r>    -6.0256     4.7570     2.0974 </r>
       <r>    -6.0218     5.0344     2.1168 </r>
       <r>    -6.0179     5.3157     2.1373 </r>
       <r>    -6.0141     5.6004     2.1589 </r>
       <r>    -6.0102     5.8880     2.1816 </r>
       <r>    -6.0063     6.1778     2.2054 </r>
       <r>    -6.0025     6.4693     2.2304 </r>
       <r>    -5.9986     6.7619     2.2565 </r>
       <r>    -5.9948     7.0548     2.2837 </r>
       <r>    -5.9909     7.3476     2.3120 </r>
       <r>    -5.9871     7.6393     2.3415 </r>
       <r>    -5.9832     7.9295     2.3721 </r>
       <r>    -5.9793     8.2173     2.4038 </r>
       <r>    -5.9755     8.5021     2.4366 </r>
       <r>    -5.9716     8.7831     2.4705 </r>
       <r>    -5.9678     9.0596     2.5054 </r>
       <r>    -5.9639     9.3310     2.5414 </r>
       <r>    -5.9601     9.5963     2.5784 </r>
       <r>    -5.9562     9.8550     2.6164 </r>
       <r>    -5.9523    10.1064     2.6554 </r>
       <r>    -5.9485    10.3496     2.6953 </r>
       <r>    -5.9446    10.5842     2.7362 </r>
       <r>    -5.9408    10.8093     2.7779 </r>
       <r>    -5.9369    11.0243     2.8204 </r>
       <r>    -5.9331    11.2287     2.8637 </r>
       <r>    -5.9292    11.4217     2.9078 </r>
       <r>    -5.9253    11.6029     2.9525 </r>
       <r>    -5.9215    11.7717     2.9979 </r>
       <r>    -5.9176    11.9275     3.0439 </r>
       <r>    -5.9138    12.0700     3.0905 </r>
       <r>    -5.9099    12.1987     3.1376 </r>
       <r>    -5.9061    12.3132     3.1851 </r>
       <r>    -5.9022    12.4131     3.2329 </r>
       <r>    -5.8983    12.4981     3.2812 </r>
       <r>    -5.8945    12.5680     3.3296 </r>
       <r>    -5.8906    12.6226     3.3783 </r>
       <r>    -5.8868    12.6616     3.4272 </r>
       <r>    -5.8829    12.6850     3.4761 </r>
       <r>    -5.8790    12.6927     3.5251 </r>
       <r>    -5.8752    12.6847     3.5740 </r>
       <r>    -5.8713    12.6610     3.6228 </r>
       <r>    -5.8675    12.6216     3.6715 </r>
       <r>    -5.8636    12.5667     3.7200 </r>
       <r>    -5.8598    12.4964     3.7682 </r>
       <r>    -5.8559    12.4111     3.8161 </r>
       <r>    -5.8520    12.3109     3.8636 </r>
       <r>    -5.8482    12.1961     3.9106 </r>
       <r>    -5.8443    12.0671     3.9572 </r>
       <r>    -5.8405    11.9244     4.0032 </r>
       <r>    -5.8366    11.7683     4.0486 </r>
       <r>    -5.8328    11.5992     4.0933 </r>
       <r>    -5.8289    11.4178     4.1373 </r>
       <r>    -5.8250    11.2246     4.1806 </r>
       <r>    -5.8212    11.0201     4.2232 </r>
       <r>    -5.8173    10.8049     4.2648 </r>
       <r>    -5.8135    10.5796     4.3056 </r>
       <r>    -5.8096    10.3450     4.3456 </r>
       <r>    -5.8058    10.1017     4.3845 </r>
       <r>    -5.8019     9.8503     4.4225 </r>
       <r>    -5.7980     9.5915     4.4595 </r>
       <r>    -5.7942     9.3262     4.4955 </r>
       <r>    -5.7903     9.0550     4.5304 </r>
       <r>    -5.7865     8.7785     4.5643 </r>
       <r>    -5.7826     8.4976     4.5971 </r>
       <r>    -5.7788     8.2130     4.6287 </r>
       <r>    -5.7749     7.9254     4.6593 </r>
       <r>    -5.7710     7.6355     4.6888 </r>
       <r>    -5.7672     7.3441     4.7171 </r>
       <r>    -5.7633     7.0517     4.7443 </r>
       <r>    -5.7595     6.7592     4.7704 </r>
       <r>    -5.7556     6.4671     4.7953 </r>
       <r>    -5.7518     6.1761     4.8191 </r>
       <r>    -5.7479     5.8869     4.8419 </r>
       <r>    -5.7440     5.5999     4.8635 </r>
       <r>    -5.7402     5.3160     4.8840 </r>
       <r>    -5.7363     5.0354     4.9034 </r>
       <r>    -5.7325     4.7589     4.9217 </r>
       <r>    -5.7286     4.4869     4.9391 </r>
       <r>    -5.7247     4.2198     4.9553 </r>
       <r>    -5.7209     3.9581     4.9706 </r>
       <r>    -5.7170     3.7022     4.9849 </r>
       <r>    -5.7132     3.4525     4.9982 </r>
       <r>    -5.7093     3.2093     5.0106 </r>
       <r>    -5.7055     2.9729     5.0220 </r>
       <r>    -5.7016     2.7436     5.0326 </r>
       <r>    -5.6977     2.5216     5.0424 </r>
       <r>    -5.6939     2.3072     5.0513 </r>
       <r>    -5.6900     2.1004     5.0594 </r>
       <r>    -5.6862     1.9016     5.0667 </r>
       <r>    -5.6823     1.7107     5.0733 </r>
       <r>    -5.6785     1.5278     5.0792 </r>
       <r>    -5.6746     1.3531     5.0844 </r>
       <r>    -5.6707     1.1865     5.0890 </r>
       <r>    -5.6669     1.0280     5.0930 </r>
       <r>    -5.6630     0.8776     5.0963 </r>
       <r>    -5.6592     0.7353     5.0992 </r>
       <r>    -5.6553     0.6010     5.1015 </r>
       <r>    -5.6515     0.4745     5.1033 </r>
       <r>    -5.6476     0.3559     5.1047 </r>
       <r>    -5.6437     0.2448     5.1056 </r>
       <r>    -5.6399     0.1412     5.1062 </r>
       <r>    -5.6360     0.0450     5.1064 </r>
       <r>    -5.6322    -0.0442     5.1062 </r>
       <r>    -5.6283    -0.1264     5.1057 </r>
       <r>    -5.6245    -0.2019     5.1049 </r>
       <r>    -5.6206    -0.2710     5.1039 </r>
       <r>    -5.6167    -0.3337     5.1026 </r>
       <r>    -5.6129    -0.3905     5.1011 </r>
       <r>    -5.6090    -0.4415     5.0994 </r>
       <r>    -5.6052    -0.4869     5.0975 </r>
       <r>    -5.6013    -0.5271     5.0955 </r>
       <r>    -5.5975    -0.5623     5.0933 </r>
       <r>    -5.5936    -0.5927     5.0910 </r>
       <r>    -5.5897    -0.6186     5.0886 </r>
       <r>    -5.5859    -0.6402     5.0862 </r>
       <r>    -5.5820    -0.6578     5.0836 </r>
       <r>    -5.5782    -0.6717     5.0810 </r>
       <r>    -5.5743    -0.6820     5.0784 </r>
       <r>    -5.5704    -0.6891     5.0757 </r>
       <r>    -5.5666    -0.6932     5.0731 </r>
       <r>    -5.5627    -0.6944     5.0704 </r>
       <r>    -5.5589    -0.6931     5.0677 </r>
       <r>    -5.5550    -0.6894     5.0651 </r>
       <r>    -5.5512    -0.6836     5.0624 </r>
       <r>    -5.5473    -0.6758     5.0598 </r>
       <r>    -5.5434    -0.6663     5.0572 </r>
       <r>    -5.5396    -0.6552     5.0547 </r>
       <r>    -5.5357    -0.6427     5.0522 </r>
       <r>    -5.5319    -0.6289     5.0498 </r>
       <r>    -5.5280    -0.6141     5.0474 </r>
       <r>    -5.5242    -0.5984     5.0451 </r>
       <r>    -5.5203    -0.5819     5.0429 </r>
       <r>    -5.5164    -0.5648     5.0407 </r>
       <r>    -5.5126    -0.5472     5.0386 </r>
       <r>    -5.5087    -0.5291     5.0366 </r>
       <r>    -5.5049    -0.5108     5.0346 </r>
       <r>    -5.5010    -0.4923     5.0327 </r>
       <r>    -5.4972    -0.4737     5.0309 </r>
       <r>    -5.4933    -0.4551     5.0291 </r>
       <r>    -5.4894    -0.4365     5.0274 </r>
       <r>    -5.4856    -0.4181     5.0258 </r>
       <r>    -5.4817    -0.3998     5.0243 </r>
       <r>    -5.4779    -0.3819     5.0228 </r>
       <r>    -5.4740    -0.3642     5.0214 </r>
       <r>    -5.4702    -0.3468     5.0200 </r>
       <r>    -5.4663    -0.3299     5.0188 </r>
       <r>    -5.4624    -0.3134     5.0176 </r>
       <r>    -5.4586    -0.2973     5.0164 </r>
       <r>    -5.4547    -0.2817     5.0153 </r>
       <r>    -5.4509    -0.2665     5.0143 </r>
       <r>    -5.4470    -0.2519     5.0133 </r>
       <r>    -5.4432    -0.2378     5.0124 </r>
       <r>    -5.4393    -0.2242     5.0115 </r>
       <r>    -5.4354    -0.2112     5.0107 </r>
       <r>    -5.4316    -0.1987     5.0100 </r>
       <r>    -5.4277    -0.1867     5.0092 </r>
       <r>    -5.4239    -0.1752     5.0086 </r>
       <r>    -5.4200    -0.1643     5.0079 </r>
       <r>    -5.4161    -0.1538     5.0073 </r>
       <r>    -5.4123    -0.1439     5.0068 </r>
       <r>    -5.4084    -0.1345     5.0063 </r>
       <r>    -5.4046    -0.1256     5.0058 </r>
       <r>    -5.4007    -0.1171     5.0053 </r>
       <r>    -5.3969    -0.1091     5.0049 </r>
       <r>    -5.3930    -0.1015     5.0045 </r>
       <r>    -5.3891    -0.0944     5.0042 </r>
       <r>    -5.3853    -0.0876     5.0038 </r>
       <r>    -5.3814    -0.0813     5.0035 </r>
       <r>    -5.3776    -0.0753     5.0032 </r>
       <r>    -5.3737    -0.0698     5.0029 </r>
       <r>    -5.3699    -0.0645     5.0027 </r>
       <r>    -5.3660    -0.0596     5.0025 </r>
       <r>    -5.3621    -0.0551     5.0023 </r>
       <r>    -5.3583    -0.0508     5.0021 </r>
       <r>    -5.3544    -0.0468     5.0019 </r>
       <r>    -5.3506    -0.0431     5.0017 </r>
       <r>    -5.3467    -0.0396     5.0016 </r>
       <r>    -5.3429    -0.0364     5.0014 </r>
       <r>    -5.3390    -0.0334     5.0013 </r>
       <r>    -5.3351    -0.0307     5.0012 </r>
       <r>    -5.3313    -0.0281     5.0011 </r>
       <r>    -5.3274    -0.0257     5.0010 </r>
       <r>    -5.3236    -0.0236     5.0009 </r>
       <r>    -5.3197    -0.0215     5.0008 </r>
       <r>    -5.3159    -0.0197     5.0007 </r>
       <r>    -5.3120    -0.0180     5.0006 </r>
       <r>    -5.3081    -0.0164     5.0006 </r>
       <r>    -5.3043    -0.0149     5.0005 </r>
       <r>    -5.3004    -0.0136     5.0005 </r>
       <r>    -5.2966    -0.0124     5.0004 </r>
       <r>    -5.2927    -0.0113     5.0004 </r>
       <r>    -5.2889    -0.0103     5.0003 </r>
       <r>    -5.2850    -0.0094     5.0003 </r>
       <r>    -5.2811    -0.0086     5.0003 </r>
       <r>    -5.2773    -0.0078     5.0002 </r>
       <r>    -5.2734    -0.0071     5.0002 </r>
       <r>    -5.2696    -0.0065     5.0002 </r>
       <r>    -5.2657    -0.0060     5.0002 </r>
       <r>    -5.2618    -0.0055     5.0001 </r>
       <r>    -5.2580    -0.0051     5.0001 </r>
       <r>    -5.2541    -0.0047     5.0001 </r>
       <r>    -5.2503    -0.0044     5.0001 </r>
       <r>    -5.2464    -0.0041     5.0001 </r>
       <r>    -5.2426    -0.0038     5.0001 </r>
       <r>    -5.2387    -0.0036     5.0000 </r>
       <r>    -5.2348    -0.0035     5.0000 </r>
       <r>    -5.2310    -0.0034     5.0000 </r>
       <r>    -5.2271    -0.0033     5.0000 </r>
       <r>    -5.2233    -0.0032     5.0000 </r>
       <r>    -5.2194    -0.0032     5.0000 </r>
       <r>    -5.2156    -0.0033     5.0000 </r>
       <r>    -5.2117    -0.0033     5.0000 </r>
       <r>    -5.2078    -0.0034     4.9999 </r>
       <r>    -5.2040    -0.0036     4.9999 </r>
       <r>    -5.2001    -0.0037     4.9999 </r>
       <r>    -5.1963    -0.0039     4.9999 </r>
       <r>    -5.1924    -0.0042     4.9999 </r>
       <r>    -5.1886    -0.0045     4.9999 </r>
       <r>    -5.1847    -0.0048     4.9998 </r>
       <r>    -5.1808    -0.0052     4.9998 </r>
       <r>    -5.1770    -0.0056     4.9998 </r>
       <r>    -5.1731    -0.0060     4.9998 </r>
       <r>    -5.1693    -0.0066     4.9998 </r>
       <r>    -5.1654    -0.0071     4.9997 </r>
       <r>    -5.1616    -0.0077     4.9997 </r>
       <r>    -5.1577    -0.0084     4.9997 </r>
       <r>    -5.1538    -0.0091     4.9996 </r>
       <r>    -5.1500    -0.0099     4.9996 </r>
       <r>    -5.1461    -0.0108     4.9996 </r>
       <r>    -5.1423    -0.0118     4.9995 </r>
       <r>    -5.1384    -0.0128     4.9995 </r>
       <r>    -5.1346    -0.0139     4.9994 </r>
       <r>    -5.1307    -0.0151     4.9993 </r>
       <r>    -5.1268    -0.0163     4.9993 </r>
       <r>    -5.1230    -0.0177     4.9992 </r>
       <r>    -5.1191    -0.0192     4.9991 </r>
       <r>    -5.1153    -0.0207     4.9991 </r>
       <r>    -5.1114    -0.0224     4.9990 </r>
       <r>    -5.1075    -0.0242     4.9989 </r>
       <r>    -5.1037    -0.0261     4.9988 </r>
       <r>    -5.0998    -0.0282     4.9987 </r>
       <r>    -5.0960    -0.0304     4.9986 </r>
       <r>    -5.0921    -0.0327     4.9984 </r>
       <r>    -5.0883    -0.0351     4.9983 </r>
       <r>    -5.0844    -0.0377     4.9981 </r>
       <r>    -5.0805    -0.0405     4.9980 </r>
       <r>    -5.0767    -0.0434     4.9978 </r>
       <r>    -5.0728    -0.0464     4.9976 </r>
       <r>    -5.0690    -0.0497     4.9975 </r>
       <r>    -5.0651    -0.0530     4.9972 </r>
       <r>    -5.0613    -0.0566     4.9970 </r>
       <r>    -5.0574    -0.0603     4.9968 </r>
       <r>    -5.0535    -0.0643     4.9965 </r>
       <r>    -5.0497    -0.0683     4.9963 </r>
       <r>    -5.0458    -0.0726     4.9960 </r>
       <r>    -5.0420    -0.0770     4.9957 </r>
       <r>    -5.0381    -0.0817     4.9954 </r>
       <r>    -5.0343    -0.0865     4.9951 </r>
       <r>    -5.0304    -0.0914     4.9947 </r>
       <r>    -5.0265    -0.0965     4.9943 </r>
       <r>    -5.0227    -0.1018     4.9939 </r>
       <r>    -5.0188    -0.1073     4.9935 </r>
       <r>    -5.0150    -0.1128     4.9931 </r>
       <r>    -5.0111    -0.1186     4.9926 </r>
       <r>    -5.0073    -0.1244     4.9922 </r>
       <r>    -5.0034    -0.1303     4.9917 </r>
       <r>    -4.9995    -0.1364     4.9911 </r>
       <r>    -4.9957    -0.1425     4.9906 </r>
       <r>    -4.9918    -0.1487     4.9900 </r>
       <r>    -4.9880    -0.1549     4.9894 </r>
       <r>    -4.9841    -0.1611     4.9888 </r>
       <r>    -4.9803    -0.1673     4.9881 </r>
       <r>    -4.9764    -0.1734     4.9875 </r>
       <r>    -4.9725    -0.1795     4.9868 </r>
       <r>    -4.9687    -0.1854     4.9861 </r>
       <r>    -4.9648    -0.1912     4.9853 </r>
       <r>    -4.9610    -0.1968     4.9846 </r>
       <r>    -4.9571    -0.2022     4.9838 </r>
       <r>    -4.9532    -0.2073     4.9830 </r>
       <r>    -4.9494    -0.2121     4.9822 </r>
       <r>    -4.9455    -0.2164     4.9813 </r>
       <r>    -4.9417    -0.2204     4.9805 </r>
       <r>    -4.9378    -0.2238     4.9796 </r>
       <r>    -4.9340    -0.2267     4.9787 </r>
       <r>    -4.9301    -0.2290     4.9779 </r>
       <r>    -4.9262    -0.2306     4.9770 </r>
       <r>    -4.9224    -0.2314     4.9761 </r>
       <r>    -4.9185    -0.2314     4.9752 </r>
       <r>    -4.9147    -0.2305     4.9743 </r>
       <r>    -4.9108    -0.2287     4.9734 </r>
       <r>    -4.9070    -0.2258     4.9725 </r>
       <r>    -4.9031    -0.2217     4.9717 </r>
       <r>    -4.8992    -0.2165     4.9709 </r>
       <r>    -4.8954    -0.2099     4.9700 </r>
       <r>    -4.8915    -0.2020     4.9693 </r>
       <r>    -4.8877    -0.1926     4.9685 </r>
       <r>    -4.8838    -0.1817     4.9678 </r>
       <r>    -4.8800    -0.1691     4.9672 </r>
       <r>    -4.8761    -0.1548     4.9666 </r>
       <r>    -4.8722    -0.1388     4.9660 </r>
       <r>    -4.8684    -0.1208     4.9656 </r>
       <r>    -4.8645    -0.1008     4.9652 </r>
       <r>    -4.8607    -0.0789     4.9649 </r>
       <r>    -4.8568    -0.0548     4.9647 </r>
       <r>    -4.8530    -0.0284     4.9646 </r>
       <r>    -4.8491     0.0001     4.9646 </r>
       <r>    -4.8452     0.0311     4.9647 </r>
       <r>    -4.8414     0.0644     4.9649 </r>
       <r>    -4.8375     0.1002     4.9653 </r>
       <r>    -4.8337     0.1385     4.9658 </r>
       <r>    -4.8298     0.1794     4.9665 </r>
       <r>    -4.8260     0.2229     4.9674 </r>
       <r>    -4.8221     0.2690     4.9684 </r>
       <r>    -4.8182     0.3178     4.9697 </r>
       <r>    -4.8144     0.3693     4.9711 </r>
       <r>    -4.8105     0.4236     4.9727 </r>
       <r>    -4.8067     0.4805     4.9746 </r>
       <r>    -4.8028     0.5401     4.9767 </r>
       <r>    -4.7989     0.6025     4.9790 </r>
       <r>    -4.7951     0.6675     4.9816 </r>
       <r>    -4.7912     0.7351     4.9844 </r>
       <r>    -4.7874     0.8054     4.9875 </r>
       <r>    -4.7835     0.8781     4.9909 </r>
       <r>    -4.7797     0.9534     4.9946 </r>
       <r>    -4.7758     1.0311     4.9985 </r>
       <r>    -4.7719     1.1110     5.0028 </r>
       <r>    -4.7681     1.1933     5.0074 </r>
       <r>    -4.7642     1.2776     5.0124 </r>
       <r>    -4.7604     1.3639     5.0176 </r>
       <r>    -4.7565     1.4521     5.0232 </r>
       <r>    -4.7527     1.5420     5.0292 </r>
       <r>    -4.7488     1.6334     5.0355 </r>
       <r>    -4.7449     1.7263     5.0421 </r>
       <r>    -4.7411     1.8204     5.0492 </r>
       <r>    -4.7372     1.9156     5.0565 </r>
       <r>    -4.7334     2.0117     5.0643 </r>
       <r>    -4.7295     2.1085     5.0724 </r>
       <r>    -4.7257     2.2057     5.0809 </r>
       <r>    -4.7218     2.3032     5.0898 </r>
       <r>    -4.7179     2.4007     5.0991 </r>
       <r>    -4.7141     2.4980     5.1087 </r>
       <r>    -4.7102     2.5949     5.1187 </r>
       <r>    -4.7064     2.6912     5.1291 </r>
       <r>    -4.7025     2.7866     5.1399 </r>
       <r>    -4.6987     2.8809     5.1510 </r>
       <r>    -4.6948     2.9738     5.1624 </r>
       <r>    -4.6909     3.0651     5.1743 </r>
       <r>    -4.6871     3.1545     5.1864 </r>
       <r>    -4.6832     3.2419     5.1989 </r>
       <r>    -4.6794     3.3269     5.2118 </r>
       <r>    -4.6755     3.4094     5.2249 </r>
       <r>    -4.6717     3.4890     5.2384 </r>
       <r>    -4.6678     3.5657     5.2521 </r>
       <r>    -4.6639     3.6391     5.2662 </r>
       <r>    -4.6601     3.7090     5.2805 </r>
       <r>    -4.6562     3.7753     5.2951 </r>
       <r>    -4.6524     3.8377     5.3099 </r>
       <r>    -4.6485     3.8961     5.3249 </r>
       <r>    -4.6446     3.9503     5.3401 </r>
       <r>    -4.6408     4.0000     5.3556 </r>
       <r>    -4.6369     4.0453     5.3712 </r>
       <r>    -4.6331     4.0859     5.3869 </r>
       <r>    -4.6292     4.1217     5.4028 </r>
       <r>    -4.6254     4.1525     5.4188 </r>
[...]
        <r>     2.5380     0.0000     0.0000     0.0000     0.0000     0.0000     0.0000     0.0000     0.0000     0.0000 </r>
        <r>     2.5419     0.0000     0.0000     0.0000     0.0000     0.0000     0.0000     0.0000     0.0000     0.0000 </r>
        <r>     2.5457     0.0000     0.0000     0.0000     0.0000     0.0000     0.0000     0.0000     0.0000     0.0000 </r>
        <r>     2.5496     0.0000     0.0000     0.0000     0.0000     0.0000     0.0000     0.0000     0.0000     0.0000 </r>
        <r>     2.5534     0.0000     0.0000     0.0000     0.0000     0.0000     0.0000     0.0000     0.0000     0.0000 </r>
        <r>     2.5573     0.0000     0.0000     0.0000     0.0000     0.0000     0.0000     0.0000     0.0000     0.0000 </r>
        <r>     2.5611     0.0000     0.0000     0.0000     0.0000     0.0000     0.0000     0.0000     0.0000     0.0000 </r>
        <r>     2.5650     0.0000     0.0000     0.0000     0.0000     0.0000     0.0000     0.0000     0.0000     0.0000 </r>
        <r>     2.5689     0.0000     0.0000     0.0000     0.0000     0.0000     0.0000     0.0000     0.0000     0.0000 </r>
        <r>     2.5727     0.0000     0.0000     0.0000     0.0000     0.0000     0.0000     0.0000     0.0000     0.0000 </r>
        <r>     2.5766     0.0000     0.0000     0.0000     0.0000     0.0000     0.0000     0.0000     0.0000     0.0000 </r>
        <r>     2.5804     0.0000     0.0000     0.0000     0.0000     0.0000     0.0000     0.0000     0.0000     0.0000 </r>
        <r>     2.5843     0.0000     0.0000     0.0000     0.0000     0.0000     0.0000     0.0000     0.0000     0.0000 </r>
        <r>     2.5882     0.0000     0.0000     0.0000     0.0000     0.0000     0.0000     0.0000     0.0000     0.0000 </r>
        <r>     2.5920     0.0000     0.0000     0.0000     0.0000     0.0000     0.0000     0.0000     0.0000     0.0000 </r>
        <r>     2.5959     0.0000     0.0000     0.0000     0.0000     0.0000     0.0000     0.0000     0.0000     0.0000 </r>
        <r>     2.5997     0.0000     0.0000     0.0000     0.0000     0.0000     0.0000     0.0000     0.0000     0.0000 </r>
        <r>     2.6036     0.0000     0.0000     0.0000     0.0000     0.0000     0.0000     0.0000     0.0000     0.0000 </r>
        <r>     2.6074     0.0000     0.0000     0.0000     0.0000     0.0000     0.0000     0.0000     0.0000     0.0000 </r>
        <r>     2.6113     0.0000     0.0000     0.0000     0.0000     0.0000     0.0000     0.0000     0.0000     0.0000 </r>
        <r>     2.6152     0.0000     0.0000     0.0000     0.0000     0.0000     0.0000     0.0000     0.0000     0.0000 </r>
        <r>     2.6190     0.0000     0.0000     0.0000     0.0000     0.0000     0.0000     0.0000     0.0000     0.0000 </r>
        <r>     2.6229     0.0000     0.0000     0.0000     0.0000     0.0000     0.0000     0.0000     0.0000     0.0000 </r>
        <r>     2.6267     0.0000     0.0000     0.0000     0.0000     0.0000     0.0000     0.0000     0.0000     0.0000 </r>
        <r>     2.6306     0.0000     0.0000     0.0000     0.0000     0.0000     0.0000     0.0000     0.0000     0.0000 </r>
        <r>     2.6344     0.0000     0.0000     0.0000     0.0000     0.0000     0.0000     0.0000     0.0000     0.0000 </r>
        <r>     2.6383     0.0000     0.0000     0.0000     0.0000     0.0000     0.0000     0.0000     0.0000     0.0000 </r>
        <r>     2.6422     0.0000     0.0000     0.0000     0.0000     0.0000     0.0000     0.0000     0.0000     0.0000 </r>
        <r>     2.6460     0.0000     0.0000     0.0000     0.0000     0.0000     0.0000     0.0000     0.0000     0.0000 </r>
        <r>     2.6499     0.0000     0.0000     0.0000     0.0000     0.0000     0.0000     0.0000     0.0000     0.0000 </r>
        <r>     2.6537     0.0000     0.0000     0.0000     0.0000     0.0000     0.0000     0.0000     0.0000     0.0000 </r>
        <r>     2.6576     0.0000     0.0000     0.0000     0.0000     0.0000     0.0000     0.0000     0.0000     0.0000 </r>
        <r>     2.6614     0.0000     0.0000     0.0000     0.0000     0.0000     0.0000     0.0000     0.0000     0.0000 </r>
        <r>     2.6653     0.0000     0.0000     0.0000     0.0000     0.0000     0.0000     0.0000     0.0000     0.0000 </r>
        <r>     2.6692     0.0000     0.0000     0.0000     0.0000     0.0000     0.0000     0.0000     0.0000     0.0000 </r>
        <r>     2.6730     0.0000     0.0000     0.0000     0.0000     0.0000     0.0000     0.0000     0.0000     0.0000 </r>
        <r>     2.6769     0.0000     0.0000     0.0000     0.0000     0.0000     0.0000     0.0000     0.0000     0.0000 </r>
        <r>     2.6807     0.0000     0.0000     0.0000     0.0000     0.0000     0.0000     0.0000     0.0000     0.0000 </r>
        <r>     2.6846     0.0000     0.0000     0.0000     0.0000     0.0000     0.0000     0.0000     0.0000     0.0000 </r>
        <r>     2.6884     0.0000     0.0000     0.0000     0.0000     0.0000     0.0000     0.0000     0.0000     0.0000 </r>
        <r>     2.6923     0.0000     0.0000     0.0000     0.0000     0.0000     0.0000     0.0000     0.0000     0.0000 </r>
        <r>     2.6962     0.0000     0.0000     0.0000     0.0000     0.0000     0.0000     0.0000     0.0000     0.0000 </r>
        <r>     2.7000     0.0000     0.0000     0.0000     0.0000     0.0000     0.0000     0.0000     0.0000     0.0000 </r>
        <r>     2.7039     0.0000     0.0000     0.0000     0.0000     0.0000     0.0000     0.0000     0.0000     0.0000 </r>
        <r>     2.7077     0.0000     0.0000     0.0000     0.0000     0.0000     0.0000     0.0000     0.0000     0.0000 </r>
        <r>     2.7116     0.0000     0.0000     0.0000     0.0000     0.0000     0.0000     0.0000     0.0000     0.0000 </r>
        <r>     2.7154     0.0000     0.0000     0.0000     0.0000     0.0000     0.0000     0.0000     0.0000     0.0000 </r>
        <r>     2.7193     0.0000     0.0000     0.0000     0.0000     0.0000     0.0000     0.0000     0.0000     0.0000 </r>
        <r>     2.7232     0.0000     0.0000     0.0000     0.0000     0.0000     0.0000     0.0000     0.0000     0.0000 </r>
        <r>     2.7270     0.0000     0.0000     0.0000     0.0000     0.0000     0.0000     0.0000     0.0000     0.0000 </r>
        <r>     2.7309     0.0000     0.0000     0.0000     0.0000     0.0000     0.0000     0.0000     0.0000     0.0000 </r>
        <r>     2.7347     0.0000     0.0000     0.0000     0.0000     0.0000     0.0000     0.0000     0.0000     0.0000 </r>
        <r>     2.7386     0.0000     0.0000     0.0000     0.0000     0.0000     0.0000     0.0000     0.0000     0.0000 </r>
        <r>     2.7425     0.0000     0.0000     0.0000     0.0000     0.0000     0.0000     0.0000     0.0000     0.0000 </r>
        <r>     2.7463     0.0000     0.0000     0.0000     0.0000     0.0000     0.0000     0.0000     0.0000     0.0000 </r>
        <r>     2.7502     0.0000     0.0000     0.0000     0.0000     0.0000     0.0000     0.0000     0.0000     0.0000 </r>
        <r>     2.7540     0.0000     0.0000     0.0000     0.0000     0.0000     0.0000     0.0000     0.0000     0.0000 </r>
        <r>     2.7579     0.0000     0.0000     0.0000     0.0000     0.0000     0.0000     0.0000     0.0000     0.0000 </r>
        <r>     2.7617     0.0000     0.0000     0.0000     0.0000     0.0000     0.0000     0.0000     0.0000     0.0000 </r>
        <r>     2.7656     0.0000     0.0000     0.0000     0.0000     0.0000     0.0000     0.0000     0.0000     0.0000 </r>
        <r>     2.7695     0.0000     0.0000     0.0000     0.0000     0.0000     0.0000     0.0000     0.0000     0.0000 </r>
        <r>     2.7733     0.0000     0.0000     0.0000     0.0000     0.0000     0.0000     0.0000     0.0000     0.0000 </r>
        <r>     2.7772     0.0000     0.0000     0.0000     0.0000     0.0000     0.0000     0.0000     0.0000     0.0000 </r>
        <r>     2.7810     0.0000     0.0000     0.0000     0.0000     0.0000     0.0000     0.0000     0.0000     0.0000 </r>
        <r>     2.7849     0.0000     0.0000     0.0000     0.0000     0.0000     0.0000     0.0000     0.0000     0.0000 </r>
        <r>     2.7887     0.0000     0.0000     0.0000     0.0000     0.0000     0.0000     0.0000     0.0000     0.0000 </r>
        <r>     2.7926     0.0000     0.0000     0.0000     0.0000     0.0000     0.0000     0.0000     0.0000     0.0000 </r>
        <r>     2.7965     0.0000     0.0000     0.0000     0.0000     0.0000     0.0000     0.0000     0.0000     0.0000 </r>
        <r>     2.8003     0.0000     0.0000     0.0000     0.0000     0.0000     0.0000     0.0000     0.0000     0.0000 </r>
        <r>     2.8042     0.0000     0.0000     0.0000     0.0000     0.0000     0.0000     0.0000     0.0000     0.0000 </r>
        <r>     2.8080     0.0000     0.0000     0.0000     0.0000     0.0000     0.0000     0.0000     0.0000     0.0000 </r>
        <r>     2.8119     0.0000     0.0000     0.0000     0.0000     0.0000     0.0000     0.0000     0.0000     0.0000 </r>
        <r>     2.8157     0.0000     0.0000     0.0000     0.0000     0.0000     0.0000     0.0000     0.0000     0.0000 </r>
        <r>     2.8196     0.0000     0.0000     0.0000     0.0000     0.0000     0.0000     0.0000     0.0000     0.0000 </r>
        <r>     2.8235     0.0000     0.0000     0.0000     0.0000     0.0000     0.0000     0.0000     0.0000     0.0000 </r>
        <r>     2.8273     0.0000     0.0000     0.0000     0.0000     0.0000     0.0000     0.0000     0.0000     0.0000 </r>
        <r>     2.8312     0.0000     0.0000     0.0000     0.0000     0.0000     0.0000     0.0000     0.0000     0.0000 </r>
        <r>     2.8350     0.0000     0.0000     0.0000     0.0000     0.0000     0.0000     0.0000     0.0000     0.0000 </r>
        <r>     2.8389     0.0000     0.0000     0.0000     0.0000     0.0000     0.0000     0.0000     0.0000     0.0000 </r>
        <r>     2.8427     0.0000     0.0000     0.0000     0.0000     0.0000     0.0000     0.0000     0.0000     0.0000 </r>
        <r>     2.8466     0.0000     0.0000     0.0000     0.0000     0.0000     0.0000     0.0000     0.0000     0.0000 </r>
        <r>     2.8505     0.0000     0.0000     0.0000     0.0000     0.0000     0.0000     0.0000     0.0000     0.0000 </r>
        <r>     2.8543     0.0000     0.0000     0.0000     0.0000     0.0000     0.0000     0.0000     0.0000     0.0000 </r>
        <r>     2.8582     0.0000     0.0000     0.0000     0.0000     0.0000     0.0000     0.0000     0.0000     0.0000 </r>
        <r>     2.8620     0.0000     0.0000     0.0000     0.0000     0.0000     0.0000     0.0000     0.0000     0.0000 </r>
        <r>     2.8659     0.0000     0.0000     0.0000     0.0000     0.0000     0.0000     0.0000     0.0000     0.0000 </r>
        <r>     2.8697     0.0000     0.0000     0.0000     0.0000     0.0000     0.0000     0.0000     0.0000     0.0000 </r>
        <r>     2.8736     0.0000     0.0000     0.0000     0.0000     0.0000     0.0000     0.0000     0.0000     0.0000 </r>
        <r>     2.8775     0.0000     0.0000     0.0000     0.0000     0.0000     0.0000     0.0000     0.0000     0.0000 </r>
        <r>     2.8813     0.0000     0.0000     0.0000     0.0000     0.0000     0.0000     0.0000     0.0000     0.0000 </r>
        <r>     2.8852     0.0000     0.0000     0.0000     0.0000     0.0000     0.0000     0.0000     0.0000     0.0000 </r>
        <r>     2.8890     0.0000     0.0000     0.0000     0.0000     0.0000     0.0000     0.0000     0.0000     0.0000 </r>
        <r>     2.8929     0.0000     0.0000     0.0000     0.0000     0.0000     0.0000     0.0000     0.0000     0.0000 </r>
        <r>     2.8968     0.0000     0.0000     0.0000     0.0000     0.0000     0.0000     0.0000     0.0000     0.0000 </r>
        <r>     2.9006     0.0000     0.0000     0.0000     0.0000     0.0000     0.0000     0.0000     0.0000     0.0000 </r>
        <r>     2.9045     0.0000     0.0000     0.0000     0.0000     0.0000     0.0000     0.0000     0.0000     0.0000 </r>
        <r>     2.9083     0.0000     0.0000     0.0000     0.0000     0.0000     0.0000     0.0000     0.0000     0.0000 </r>
        <r>     2.9122     0.0000     0.0000     0.0000     0.0000     0.0000     0.0000     0.0000     0.0000     0.0000 </r>
        <r>     2.9160     0.0000     0.0000     0.0000     0.0000     0.0000     0.0000     0.0000     0.0000     0.0000 </r>
        <r>     2.9199     0.0000     0.0000     0.0000     0.0000     0.0000     0.0000     0.0000     0.0000     0.0000 </r>
        <r>     2.9238     0.0000     0.0000     0.0000     0.0000     0.0000     0.0000     0.0000     0.0000     0.0000 </r>
        <r>     2.9276     0.0000     0.0000     0.0000     0.0000     0.0000     0.0000     0.0000     0.0000     0.0000 </r>
        <r>     2.9315     0.0000     0.0000     0.0000     0.0000     0.0000     0.0000     0.0000     0.0000     0.0000 </r>
        <r>     2.9353     0.0000     0.0000     0.0000     0.0000     0.0000     0.0000     0.0000     0.0000     0.0000 </r>
        <r>     2.9392     0.0000     0.0000     0.0000     0.0000     0.0000     0.0000     0.0000     0.0000     0.0000 </r>
        <r>     2.9430     0.0000     0.0000     0.0000     0.0000     0.0000     0.0000     0.0000     0.0000     0.0000 </r>
        <r>     2.9469     0.0000     0.0000     0.0000     0.0000     0.0000     0.0000     0.0000     0.0000     0.0000 </r>
        <r>     2.9508     0.0000     0.0000     0.0000     0.0000     0.0000     0.0000     0.0000     0.0000     0.0000 </r>
        <r>     2.9546     0.0000     0.0000     0.0000     0.0000     0.0000     0.0000     0.0000     0.0000     0.0000 </r>
        <r>     2.9585     0.0000     0.0000     0.0000     0.0000     0.0000     0.0000     0.0000     0.0000     0.0000 </r>
       </set>
      </set>
     </set>
    </array>
   </partial>
  </dos>
  <projected>
   <eigenvalues>
    <array>
     <dimension dim="1">band</dimension>
     <dimension dim="2">kpoint</dimension>
     <dimension dim="3">spin</dimension>
     <field>eigene</field>
     <field>occ</field>
     <set>
      <set comment="spin 1">
       <set comment="kpoint 1">
        <r>   -6.6102    1.0000 </r>
        <r>   -6.6070    1.0000 </r>
        <r>   -5.8820    1.0000 </r>
        <r>   -5.8818    1.0000 </r>
        <r>   -5.8793    1.0000 </r>
        <r>   -4.6061    0.4556 </r>
        <r>   -0.6251   -0.0000 </r>
        <r>   -0.5983   -0.0000 </r>
        <r>   -0.5554   -0.0000 </r>
        <r>   -0.1170   -0.0000 </r>
        <r>    0.8158   -0.0000 </r>
        <r>    0.9585    0.0000 </r>
       </set>
      </set>
      <set comment="spin 2">
       <set comment="kpoint 1">
        <r>   -5.2712    1.0000 </r>
        <r>   -5.2712    1.0000 </r>
        <r>   -5.2700    1.0000 </r>
        <r>   -4.7051    0.8370 </r>
        <r>   -4.5815    0.3541 </r>
        <r>   -4.5813    0.3532 </r>
        <r>   -0.8199   -0.0000 </r>
        <r>   -0.7950   -0.0000 </r>
        <r>   -0.7523   -0.0000 </r>
        <r>   -0.1977   -0.0000 </r>
        <r>    0.7252   -0.0000 </r>
        <r>    0.8504    0.0000 </r>
       </set>
      </set>
     </set>
    </array>
   </eigenvalues>
   <array>
    <dimension dim="1">ion</dimension>
    <dimension dim="2">band</dimension>
    <dimension dim="3">kpoint</dimension>
    <dimension dim="4">spin</dimension>
    <field>  s</field>
    <field> py</field>
    <field> pz</field>
    <field> px</field>
    <field>dxy</field>
    <field>dyz</field>
    <field>dz2</field>
    <field>dxz</field>
    <field>dx2</field>
    <set>
     <set comment="spin1">
      <set comment="kpoint 1">
       <set comment="band 1">
        <r>  0.0000  0.0000  0.0000  0.0000  0.0000  0.0000  0.2429  0.0000  0.7091 </r>
       </set>
       <set comment="band 2">
        <r>  0.0000  0.0000  0.0000  0.0000  0.0000  0.0000  0.7091  0.0000  0.2429 </r>
       </set>
       <set comment="band 3">
        <r>  0.0000  0.0000  0.0000  0.0000  0.0000  0.0000  0.0000  0.9484  0.0000 </r>
       </set>
       <set comment="band 4">
        <r>  0.0000  0.0000  0.0000  0.0000  0.9484  0.0000  0.0000  0.0000  0.0000 </r>
       </set>
       <set comment="band 5">
        <r>  0.0000  0.0000  0.0000  0.0000  0.0000  0.9484  0.0000  0.0000  0.0000 </r>
       </set>
       <set comment="band 6">
        <r>  0.3684  0.0000  0.0000  0.0000  0.0000  0.0000  0.0000  0.0000  0.0000 </r>
       </set>
       <set comment="band 7">
        <r>  0.0000  0.0000  0.1049  0.0000  0.0000  0.0000  0.0000  0.0000  0.0000 </r>
       </set>
       <set comment="band 8">
        <r>  0.0000  0.1093  0.0000  0.0000  0.0000  0.0000  0.0000  0.0000  0.0000 </r>
       </set>
       <set comment="band 9">
        <r>  0.0000  0.0000  0.0000  0.1157  0.0000  0.0000  0.0000  0.0000  0.0000 </r>
       </set>
       <set comment="band 10">
        <r>  0.0217  0.0000  0.0000  0.0000  0.0000  0.0000  0.0000  0.0000  0.0000 </r>
       </set>
       <set comment="band 11">
        <r>  0.0033  0.0000  0.0000  0.0000  0.0000  0.0000  0.0015  0.0000  0.0000 </r>
       </set>
       <set comment="band 12">
        <r>  0.0021  0.0000  0.0000  0.0000  0.0000  0.0000  0.0000  0.0000  0.0022 </r>
       </set>
      </set>
     </set>
     <set comment="spin2">
      <set comment="kpoint 1">
       <set comment="band 1">
        <r>  0.0000  0.0000  0.0000  0.0000  0.9414  0.0000  0.0000  0.0000  0.0000 </r>
       </set>
       <set comment="band 2">
        <r>  0.0000  0.0000  0.0000  0.0000  0.0000  0.0000  0.0000  0.9414  0.0000 </r>
       </set>
       <set comment="band 3">
        <r>  0.0000  0.0000  0.0000  0.0000  0.0000  0.9413  0.0000  0.0000  0.0000 </r>
       </set>
       <set comment="band 4">
        <r>  0.3557  0.0000  0.0000  0.0000  0.0000  0.0000  0.0000  0.0000  0.0000 </r>
       </set>
       <set comment="band 5">
        <r>  0.0000  0.0000  0.0000  0.0000  0.0000  0.0000  0.7172  0.0000  0.2191 </r>
       </set>
       <set comment="band 6">
        <r>  0.0000  0.0000  0.0000  0.0000  0.0000  0.0000  0.2191  0.0000  0.7172 </r>
       </set>
       <set comment="band 7">
        <r>  0.0000  0.0000  0.1030  0.0000  0.0000  0.0000  0.0000  0.0000  0.0000 </r>
       </set>
       <set comment="band 8">
        <r>  0.0000  0.1068  0.0000  0.0000  0.0000  0.0000  0.0000  0.0000  0.0000 </r>
       </set>
       <set comment="band 9">
        <r>  0.0000  0.0000  0.0000  0.1126  0.0000  0.0000  0.0000  0.0000  0.0000 </r>
       </set>
       <set comment="band 10">
        <r>  0.0246  0.0000  0.0000  0.0000  0.0000  0.0000  0.0000  0.0000  0.0000 </r>
       </set>
       <set comment="band 11">
        <r>  0.0023  0.0000  0.0000  0.0000  0.0000  0.0000  0.0028  0.0000  0.0000 </r>
       </set>
       <set comment="band 12">
        <r>  0.0015  0.0000  0.0000  0.0000  0.0000  0.0000  0.0001  0.0000  0.0040 </r>
       </set>
      </set>
     </set>
    </set>
   </array>
  </projected>
 </calculation>
 <structure name="finalpos" >
  <crystal>
   <varray name="basis" >
    <v>      10.00000000       0.00000000       0.00000000 </v>
    <v>       0.00000000      11.00000000       0.00000000 </v>
    <v>       0.00000000       0.00000000      12.00000000 </v>
   </varray>
   <i name="volume">   1320.00000000 </i>
   <varray name="rec_basis" >
    <v>       0.10000000       0.00000000       0.00000000 </v>
    <v>       0.00000000       0.09090909       0.00000000 </v>
    <v>       0.00000000       0.00000000       0.08333333 </v>
   </varray>
  </crystal>
  <varray name="positions" >
   <v>       0.00000000       0.00000000       0.00000000 </v>
  </varray>
 </structure>
</modeling>
