 vasp.5.4.1 05Feb16 (build Oct  9 2017 12:54:17) complex                         
 executed on GCC_fftw_scalapack_o date 2018.05.11  22:18:01
 running on   42 total cores
 distrk:  each k-point on   42 cores,    1 groups
 distr:  one band on NCORES_PER_BAND=   1 cores,   42 groups


--------------------------------------------------------------------------------------------------------


 INCAR:
 POTCAR:    PAW_PBE Ni 02Aug2007                  

 ----------------------------------------------------------------------------- 
|                                                                             |
|           W    W    AA    RRRRR   N    N  II  N    N   GGGG   !!!           |
|           W    W   A  A   R    R  NN   N  II  NN   N  G    G  !!!           |
|           W    W  A    A  R    R  N N  N  II  N N  N  G       !!!           |
|           W WW W  AAAAAA  RRRRR   N  N N  II  N  N N  G  GGG   !            |
|           WW  WW  A    A  R   R   N   NN  II  N   NN  G    G                |
|           W    W  A    A  R    R  N    N  II  N    N   GGGG   !!!           |
|                                                                             |
|      For optimal performance we recommend to set                            |
|        NCORE= 4 - approx SQRT( number of cores)                             |
|      NCORE specifies how many cores store one orbital (NPAR=cpu/NCORE).     |
|      This setting can  greatly improve the performance of VASP for DFT.     |
|      The default, NPAR=number of cores might be grossly inefficient         |
|      on modern multi-core architectures or massively parallel machines.     |
|      Do your own testing !!!!                                               |
|      Unfortunately you need to use the default for GW and RPA calculations. |
|      (for HF NCORE is supported but not extensively tested yet)             |
|                                                                             |
 ----------------------------------------------------------------------------- 

 POTCAR:    PAW_PBE Ni 02Aug2007                  
   VRHFIN =Ni:                                                                  
   LEXCH  = PE                                                                  
   EATOM  =  1077.6739 eV,   79.2068 Ry                                         
                                                                                
   TITEL  = PAW_PBE Ni 02Aug2007                                                
   LULTRA =        F    use ultrasoft PP ?                                      
   IUNSCR =        1    unscreen: 0-lin 1-nonlin 2-no                           
   RPACOR =    2.000    partial core radius                                     
   POMASS =   58.690; ZVAL   =   10.000    mass and valenz                      
   RCORE  =    2.300    outmost cutoff radius                                   
   RWIGS  =    2.430; RWIGS  =    1.286    wigner-seitz radius (au A)           
   ENMAX  =  269.532; ENMIN  =  202.149 eV                                      
   RCLOC  =    1.201    cutoff for local pot                                    
   LCOR   =        T    correct aug charges                                     
   LPAW   =        T    paw PP                                                  
   EAUG   =  544.565                                                            
   DEXC   =    0.000                                                            
   RMAX   =    2.357    core radius for proj-oper                               
   RAUG   =    1.300    factor for augmentation sphere                          
   RDEP   =    2.390    radius for radial grids                                 
   RDEPT  =    1.838    core radius for aug-charge                              
                                                                                
   Atomic configuration                                                         
    9 entries                                                                   
     n  l   j            E        occ.                                          
     1  0  0.50     -8206.4253   2.0000                                         
     2  0  0.50      -976.1748   2.0000                                         
     2  1  1.50      -839.0571   6.0000                                         
     3  0  0.50      -105.9991   2.0000                                         
     3  1  1.50       -66.4603   6.0000                                         
     3  2  2.50        -4.6458   9.0000                                         
     4  0  0.50        -4.4926   1.0000                                         
     4  1  1.50        -4.0817   0.0000                                         
     4  3  2.50        -1.3606   0.0000                                         
   Description                                                                  
     l       E           TYP  RCUT    TYP  RCUT                                 
     2     -4.6457903     23  2.300                                             
     2     -6.0063729     23  2.300                                             
     0     -4.4925590     23  2.300                                             
     0      5.0102601     23  2.300                                             
     1     -2.7211652     23  2.300                                             
     1     16.5183231     23  2.300                                             
  local pseudopotential read in
  partial core-charges read in
  partial kinetic energy density read in
  atomic valenz-charges read in
  non local Contribution for L=           2  read in
    real space projection operators read in
  non local Contribution for L=           2  read in
    real space projection operators read in
  non local Contribution for L=           0  read in
    real space projection operators read in
  non local Contribution for L=           0  read in
    real space projection operators read in
  non local Contribution for L=           1  read in
    real space projection operators read in
  non local Contribution for L=           1  read in
    real space projection operators read in
    PAW grid and wavefunctions read in

   number of l-projection  operators is LMAX  =           6
   number of lm-projection operators is LMMAX =          18


 ----------------------------------------------------------------------------- 
|                                                                             |
|  ADVICE TO THIS USER RUNNING 'VASP/VAMP'   (HEAR YOUR MASTER'S VOICE ...):  |
|                                                                             |
|      You have a (more or less) 'large supercell' and for larger cells       |
|      it might be more efficient to use real space projection opertators     |
|      So try LREAL= Auto  in the INCAR   file.                               |
|      Mind: At the moment your POTCAR file does not contain real space       |
|       projectors, and has to be modified,  BUT if you                       |
|      want to do an extremely  accurate calculation you might also keep the  |
|      reciprocal projection scheme          (i.e. LREAL=.FALSE.)             |
|                                                                             |
 ----------------------------------------------------------------------------- 

  PAW_PBE Ni 02Aug2007                  :
 energy of atom  1       EATOM=-1077.6739
 kinetic energy error for atom=    0.0101 (will be added to EATOM!!)


 POSCAR: Ni                                      
  positions in cartesian coordinates
  No initial velocities read in
 exchange correlation table for  LEXCH =        8
   RHO(1)=    0.500       N(1)  =     2000
   RHO(2)=  100.500       N(2)  =     4000



--------------------------------------------------------------------------------------------------------


 ion  position               nearest neighbor table
   1  0.063  0.063  0.465-  41 2.49  82 2.49  78 2.49  85 2.49  66 2.49  69 2.49  39 2.49  30 2.49
                            64 2.50  84 2.50  37 2.50 112 2.50
   2  0.687  0.937  0.500-  11 2.49   5 2.49  30 2.49  86 2.49  15 2.49  26 2.49  55 2.49  27 2.49
                            43 2.49  54 2.49  29 2.49  41 2.49
   3  0.687  0.687  0.429-  16 2.44  12 2.44  44 2.44  40 2.44  31 2.49   6 2.49  28 2.49  87 2.49
                            19 2.50  47 2.50  15 2.50  43 2.50
   4  0.687  0.687  0.571-  17 2.44  14 2.44  45 2.44  42 2.44  32 2.49   7 2.49  13 2.49  88 2.49
                            18 2.50  46 2.50  26 2.50  54 2.50
   5  0.687  0.687  0.500-   2 2.49   8 2.49  33 2.49  89 2.49  18 2.49  19 2.49  15 2.49  46 2.49
                            47 2.49  26 2.49  54 2.49  43 2.49
   6  0.687  0.437  0.429-  20 2.44  16 2.44  48 2.44  44 2.44   3 2.49  34 2.49  90 2.49   9 2.49
                            23 2.50  19 2.50  51 2.50  47 2.50
   7  0.687  0.437  0.571-  21 2.44  17 2.44  49 2.44  45 2.44   4 2.49  35 2.49  91 2.49  10 2.49
                            22 2.50  18 2.50  50 2.50  46 2.50
   8  0.687  0.437  0.500-   5 2.49  36 2.49  92 2.49  11 2.49  22 2.49  23 2.49  18 2.49  19 2.49
                            51 2.49  50 2.49  47 2.49  46 2.49
   9  0.687  0.187  0.429-  24 2.44  52 2.44  20 2.44  48 2.44  28 2.49  37 2.49  93 2.49   6 2.49
                            55 2.50  41 2.50  23 2.50  51 2.50
  10  0.687  0.187  0.571-  25 2.44  53 2.44  21 2.44  49 2.44  13 2.49  38 2.49  94 2.49   7 2.49
                            27 2.50  29 2.50  22 2.50  50 2.50
  11  0.687  0.187  0.500-   2 2.49  39 2.49  95 2.49   8 2.49  55 2.49  27 2.49  29 2.49  41 2.49
                            22 2.49  23 2.49  50 2.49  51 2.49
  12  0.563  0.813  0.396-  28 2.44  56 2.44   3 2.44  87 2.44  24 2.49  96 2.49  40 2.49  16 2.49

  13  0.687  0.937  0.571-  14 2.44  25 2.44  42 2.44  53 2.44  10 2.49   4 2.49  57 2.49 111 2.49
                            26 2.50  27 2.50  54 2.50  29 2.50
  14  0.563  0.813  0.604-  13 2.44  57 2.44   4 2.44  88 2.44  25 2.49  97 2.49  42 2.49  17 2.49

  15  0.563  0.813  0.465-  55 2.49  99 2.49  19 2.49  43 2.49   2 2.49  86 2.49   5 2.49  89 2.49
                            28 2.50  56 2.50   3 2.50  87 2.50
  16  0.563  0.563  0.396-   3 2.44   6 2.44  87 2.44  90 2.44  20 2.49 100 2.49  44 2.49  12 2.49

  17  0.563  0.563  0.604-   4 2.44   7 2.44  88 2.44  91 2.44  21 2.49 101 2.49  45 2.49  14 2.49

  18  0.563  0.563  0.535-  22 2.49 102 2.49  46 2.49  26 2.49   5 2.49  89 2.49   8 2.49  92 2.49
                             4 2.50  88 2.50   7 2.50  91 2.50
  19  0.563  0.563  0.465-  23 2.49 103 2.49  47 2.49  15 2.49   5 2.49  89 2.49   8 2.49  92 2.49
                             3 2.50  87 2.50   6 2.50  90 2.50
  20  0.563  0.313  0.396-   6 2.44  90 2.44   9 2.44  93 2.44  16 2.49  24 2.49 104 2.49  48 2.49

  21  0.563  0.313  0.604-   7 2.44  91 2.44  10 2.44  94 2.44  17 2.49  25 2.49 105 2.49  49 2.49

  22  0.563  0.313  0.535-  18 2.49  27 2.49 106 2.49  50 2.49   8 2.49  92 2.49  11 2.49  95 2.49
                             7 2.50  91 2.50  10 2.50  94 2.50
  23  0.563  0.313  0.465-  19 2.49  55 2.49 107 2.49  51 2.49   8 2.49  92 2.49  11 2.49  95 2.49
                             6 2.50  90 2.50   9 2.50  93 2.50
  24  0.563  0.063  0.396-   9 2.44  28 2.44  93 2.44  56 2.44  12 2.49  20 2.49 108 2.49  52 2.49

  25  0.563  0.063  0.604-  10 2.44  13 2.44  94 2.44  57 2.44  14 2.49  21 2.49 109 2.49  53 2.49

  26  0.563  0.813  0.535-  27 2.49  98 2.49  54 2.49  18 2.49   2 2.49  86 2.49   5 2.49  89 2.49
                            13 2.50  57 2.50   4 2.50  88 2.50
  27  0.563  0.063  0.535-  26 2.49  22 2.49 110 2.49  29 2.49  11 2.49   2 2.49  95 2.49  86 2.49
                            10 2.50  13 2.50  94 2.50  57 2.50
  28  0.687  0.937  0.429-  12 2.44  24 2.44  40 2.44  52 2.44   9 2.49   3 2.49  56 2.49 112 2.49
                            15 2.50  55 2.50  43 2.50  41 2.50
  29  0.813  0.063  0.535-  54 2.49  81 2.49  50 2.49  27 2.49  39 2.49  30 2.49  11 2.49   2 2.49
                            38 2.50 111 2.50  10 2.50  13 2.50
  30  0.937  0.937  0.500-  39 2.49  69 2.49   2 2.49  33 2.49  54 2.49  43 2.49  41 2.49  29 2.49
                            70 2.49  82 2.49  81 2.49   1 2.49
  31  0.937  0.687  0.429-  44 2.44  71 2.44  40 2.44  67 2.44  58 2.49  34 2.49   3 2.49 112 2.49
                            47 2.50  74 2.50  43 2.50  82 2.50
  32  0.937  0.687  0.571-  45 2.44  72 2.44  42 2.44  68 2.44  59 2.49  35 2.49   4 2.49 111 2.49
                            46 2.50  73 2.50  54 2.50  70 2.50
  33  0.937  0.687  0.500-  60 2.49  30 2.49  36 2.49   5 2.49  47 2.49  46 2.49  73 2.49  74 2.49
                            54 2.49  43 2.49  70 2.49  82 2.49
  34  0.937  0.437  0.429-  48 2.44  75 2.44  44 2.44  71 2.44  61 2.49  31 2.49   6 2.49  37 2.49
                            51 2.50  78 2.50  47 2.50  74 2.50
  35  0.937  0.437  0.571-  49 2.44  76 2.44  45 2.44  72 2.44  62 2.49  32 2.49   7 2.49  38 2.49
                            50 2.50  77 2.50  46 2.50  73 2.50
  36  0.937  0.437  0.500-  63 2.49  33 2.49   8 2.49  39 2.49  51 2.49  50 2.49  77 2.49  78 2.49
                            47 2.49  46 2.49  73 2.49  74 2.49
  37  0.937  0.187  0.429-  52 2.44  79 2.44  48 2.44  75 2.44  64 2.49 112 2.49   9 2.49  34 2.49
                            41 2.50   1 2.50  51 2.50  78 2.50
  38  0.937  0.187  0.571-  53 2.44  80 2.44  49 2.44  76 2.44  65 2.49 111 2.49  10 2.49  35 2.49
                            29 2.50  81 2.50  50 2.50  77 2.50
  39  0.937  0.187  0.500-  30 2.49  66 2.49  11 2.49  36 2.49  41 2.49  29 2.49   1 2.49  81 2.49
                            50 2.49  51 2.49  78 2.49  77 2.49
  40  0.813  0.813  0.396- 112 2.44  31 2.44  28 2.44   3 2.44  67 2.49  52 2.49  44 2.49  12 2.49

  41  0.813  0.063  0.465-   1 2.49  43 2.49  51 2.49  55 2.49  39 2.49  30 2.49  11 2.49   2 2.49
                            37 2.50 112 2.50   9 2.50  28 2.50
  42  0.813  0.813  0.604- 111 2.44  32 2.44  13 2.44   4 2.44  68 2.49  53 2.49  45 2.49  14 2.49

  43  0.813  0.813  0.465-  41 2.49  82 2.49  47 2.49  15 2.49  30 2.49  33 2.49   2 2.49   5 2.49
                           112 2.50  31 2.50  28 2.50   3 2.50
  44  0.813  0.563  0.396-  31 2.44  34 2.44   3 2.44   6 2.44  71 2.49  48 2.49  16 2.49  40 2.49

  45  0.813  0.563  0.604-  32 2.44  35 2.44   4 2.44   7 2.44  72 2.49  49 2.49  17 2.49  42 2.49

  46  0.813  0.563  0.535-  73 2.49  50 2.49  54 2.49  18 2.49  33 2.49  36 2.49   5 2.49   8 2.49
                            32 2.50  35 2.50   4 2.50   7 2.50
  47  0.813  0.563  0.465-  74 2.49  51 2.49  19 2.49  43 2.49  33 2.49  36 2.49   5 2.49   8 2.49
                            31 2.50  34 2.50   3 2.50   6 2.50
  48  0.813  0.313  0.396-  34 2.44   6 2.44  37 2.44   9 2.44  75 2.49  52 2.49  44 2.49  20 2.49

  49  0.813  0.313  0.604-  35 2.44   7 2.44  38 2.44  10 2.44  76 2.49  53 2.49  45 2.49  21 2.49

  50  0.813  0.313  0.535-  77 2.49  46 2.49  29 2.49  22 2.49  36 2.49   8 2.49  39 2.49  11 2.49
                            35 2.50  38 2.50   7 2.50  10 2.50
  51  0.813  0.313  0.465-  78 2.49  47 2.49  41 2.49  23 2.49  36 2.49  39 2.49   8 2.49  11 2.49
                            34 2.50   6 2.50  37 2.50   9 2.50
  52  0.813  0.063  0.396-  37 2.44 112 2.44   9 2.44  28 2.44  79 2.49  40 2.49  48 2.49  24 2.49

  53  0.813  0.063  0.604-  38 2.44 111 2.44  10 2.44  13 2.44  80 2.49  42 2.49  49 2.49  25 2.49

  54  0.813  0.813  0.535-  29 2.49  70 2.49  46 2.49  26 2.49  30 2.49   2 2.49  33 2.49   5 2.49
                           111 2.50  13 2.50  32 2.50   4 2.50
  55  0.563  0.063  0.465-  15 2.49  23 2.49  85 2.49  41 2.49  11 2.49   2 2.49  95 2.49  86 2.49
                             9 2.50  28 2.50  93 2.50  56 2.50
  56  0.437  0.937  0.429-  96 2.44 108 2.44  12 2.44  24 2.44  93 2.49  87 2.49  28 2.49  84 2.49
                            99 2.50  85 2.50  15 2.50  55 2.50
  57  0.437  0.937  0.571-  97 2.44 109 2.44  14 2.44  25 2.44  94 2.49  88 2.49  13 2.49  83 2.49
                            98 2.50 110 2.50  26 2.50  27 2.50
  58  0.187  0.687  0.429-  71 2.44  67 2.44 100 2.44  96 2.44  31 2.49  61 2.49  84 2.49  87 2.49
                            74 2.50  82 2.50 103 2.50  99 2.50
  59  0.187  0.687  0.571-  72 2.44  68 2.44 101 2.44  97 2.44  32 2.49  62 2.49  83 2.49  88 2.49
                            73 2.50  70 2.50 102 2.50  98 2.50
  60  0.187  0.687  0.500-  33 2.49  63 2.49  69 2.49  89 2.49  74 2.49  73 2.49  82 2.49  70 2.49
                           102 2.49 103 2.49  98 2.49  99 2.49
  61  0.187  0.437  0.429-  75 2.44  71 2.44 104 2.44 100 2.44  34 2.49  58 2.49  64 2.49  90 2.49
                            78 2.50  74 2.50 107 2.50 103 2.50
  62  0.187  0.437  0.571-  76 2.44  72 2.44 105 2.44 101 2.44  35 2.49  59 2.49  65 2.49  91 2.49
                            77 2.50  73 2.50 106 2.50 102 2.50
  63  0.187  0.437  0.500-  36 2.49  60 2.49  66 2.49  92 2.49  78 2.49  77 2.49  74 2.49  73 2.49
                           106 2.49 107 2.49 102 2.49 103 2.49
  64  0.187  0.187  0.429-  79 2.44  75 2.44 108 2.44 104 2.44  37 2.49  84 2.49  61 2.49  93 2.49
                             1 2.50  85 2.50  78 2.50 107 2.50
  65  0.187  0.187  0.571-  80 2.44  76 2.44 109 2.44 105 2.44  38 2.49  83 2.49  62 2.49  94 2.49
                            81 2.50  77 2.50 110 2.50 106 2.50
  66  0.187  0.187  0.500-  39 2.49  69 2.49  63 2.49  95 2.49  81 2.49   1 2.49  77 2.49  85 2.49
                            78 2.49 110 2.49 107 2.49 106 2.49
  67  0.063  0.813  0.396-  84 2.44 112 2.44  58 2.44  31 2.44  40 2.49  79 2.49  96 2.49  71 2.49

  68  0.063  0.813  0.604-  83 2.44 111 2.44  59 2.44  32 2.44  42 2.49  80 2.49  97 2.49  72 2.49

  69  0.187  0.937  0.500-  30 2.49  66 2.49  60 2.49  86 2.49  82 2.49  70 2.49   1 2.49  81 2.49
                            98 2.49  99 2.49  85 2.49 110 2.49
  70  0.063  0.813  0.535-  54 2.49  81 2.49  98 2.49  73 2.49  69 2.49  30 2.49  60 2.49  33 2.49
                            83 2.50 111 2.50  59 2.50  32 2.50
  71  0.063  0.563  0.396-  58 2.44  31 2.44  61 2.44  34 2.44  44 2.49  75 2.49 100 2.49  67 2.49

  72  0.063  0.563  0.604-  59 2.44  32 2.44  62 2.44  35 2.44  45 2.49  76 2.49 101 2.49  68 2.49

  73  0.063  0.563  0.535-  46 2.49  77 2.49 102 2.49  70 2.49  60 2.49  33 2.49  63 2.49  36 2.49
                            59 2.50  32 2.50  62 2.50  35 2.50
  74  0.063  0.563  0.465-  47 2.49  78 2.49 103 2.49  82 2.49  60 2.49  33 2.49  63 2.49  36 2.49
                            58 2.50  31 2.50  61 2.50  34 2.50
  75  0.063  0.313  0.396-  61 2.44  34 2.44  64 2.44  37 2.44  48 2.49  71 2.49  79 2.49 104 2.49

  76  0.063  0.313  0.604-  62 2.44  35 2.44  65 2.44  38 2.44  49 2.49  72 2.49  80 2.49 105 2.49

  77  0.063  0.313  0.535-  50 2.49  73 2.49  81 2.49 106 2.49  63 2.49  36 2.49  66 2.49  39 2.49
                            62 2.50  35 2.50  65 2.50  38 2.50
  78  0.063  0.313  0.465-  51 2.49   1 2.49  74 2.49 107 2.49  63 2.49  36 2.49  66 2.49  39 2.49
                            61 2.50  34 2.50  64 2.50  37 2.50
  79  0.063  0.063  0.396-  64 2.44  37 2.44  84 2.44 112 2.44  52 2.49  67 2.49 108 2.49  75 2.49

  80  0.063  0.063  0.604-  65 2.44  38 2.44  83 2.44 111 2.44  53 2.49  68 2.49 109 2.49  76 2.49

  81  0.063  0.063  0.535-  29 2.49  70 2.49  77 2.49 110 2.49  66 2.49  69 2.49  39 2.49  30 2.49
                            65 2.50  83 2.50  38 2.50 111 2.50
  82  0.063  0.813  0.465-   1 2.49  43 2.49  99 2.49  74 2.49  69 2.49  30 2.49  60 2.49  33 2.49
                            84 2.50 112 2.50  58 2.50  31 2.50
  83  0.187  0.937  0.571-  68 2.44  80 2.44  97 2.44 109 2.44  65 2.49 111 2.49  59 2.49  57 2.49
                            70 2.50  81 2.50  98 2.50 110 2.50
  84  0.187  0.937  0.429-  67 2.44  79 2.44  96 2.44 108 2.44  64 2.49 112 2.49  58 2.49  56 2.49
                            82 2.50   1 2.50  99 2.50  85 2.50
  85  0.313  0.063  0.465-  99 2.49  55 2.49   1 2.49 107 2.49  95 2.49  86 2.49  66 2.49  69 2.49
                            93 2.50  56 2.50  64 2.50  84 2.50
  86  0.437  0.937  0.500-  95 2.49  89 2.49   2 2.49  69 2.49  98 2.49  99 2.49  85 2.49 110 2.49
                            26 2.49  15 2.49  55 2.49  27 2.49
  87  0.437  0.687  0.429- 100 2.44  16 2.44  96 2.44  12 2.44  90 2.49   3 2.49  56 2.49  58 2.49
                           103 2.50  19 2.50  99 2.50  15 2.50
  88  0.437  0.687  0.571- 101 2.44  17 2.44  97 2.44  14 2.44  91 2.49   4 2.49  57 2.49  59 2.49
                           102 2.50  18 2.50  98 2.50  26 2.50
  89  0.437  0.687  0.500-   5 2.49  86 2.49  92 2.49  60 2.49 102 2.49 103 2.49  19 2.49  18 2.49
                            98 2.49  99 2.49  26 2.49  15 2.49
  90  0.437  0.437  0.429- 104 2.44 100 2.44  20 2.44  16 2.44   6 2.49  87 2.49  61 2.49  93 2.49
                           107 2.50  23 2.50 103 2.50  19 2.50
  91  0.437  0.437  0.571- 105 2.44 101 2.44  21 2.44  17 2.44   7 2.49  88 2.49  62 2.49  94 2.49
                           106 2.50  22 2.50 102 2.50  18 2.50
  92  0.437  0.437  0.500-   8 2.49  89 2.49  63 2.49  95 2.49 106 2.49 107 2.49 102 2.49 103 2.49
                            23 2.49  22 2.49  19 2.49  18 2.49
  93  0.437  0.187  0.429- 108 2.44  24 2.44 104 2.44  20 2.44  56 2.49   9 2.49  64 2.49  90 2.49
                            85 2.50  55 2.50 107 2.50  23 2.50
  94  0.437  0.187  0.571- 109 2.44  25 2.44 105 2.44  21 2.44  57 2.49  10 2.49  65 2.49  91 2.49
                           110 2.50  27 2.50 106 2.50  22 2.50
  95  0.437  0.187  0.500-  86 2.49  11 2.49  66 2.49  92 2.49  85 2.49 110 2.49  55 2.49  27 2.49
                           107 2.49 106 2.49  23 2.49  22 2.49
  96  0.313  0.813  0.396-  56 2.44  84 2.44  87 2.44  58 2.44 108 2.49  67 2.49  12 2.49 100 2.49

  97  0.313  0.813  0.604-  57 2.44  83 2.44  88 2.44  59 2.44 109 2.49  68 2.49  14 2.49 101 2.49

  98  0.313  0.813  0.535- 110 2.49  70 2.49  26 2.49 102 2.49  86 2.49  69 2.49  89 2.49  60 2.49
                            57 2.50  88 2.50  83 2.50  59 2.50
  99  0.313  0.813  0.465-  85 2.49  82 2.49  15 2.49 103 2.49  86 2.49  89 2.49  69 2.49  60 2.49
                            56 2.50  84 2.50  87 2.50  58 2.50
 100  0.313  0.563  0.396-  87 2.44  90 2.44  58 2.44  61 2.44  16 2.49  71 2.49 104 2.49  96 2.49

 101  0.313  0.563  0.604-  88 2.44  91 2.44  59 2.44  62 2.44  17 2.49  72 2.49 105 2.49  97 2.49

 102  0.313  0.563  0.535-  18 2.49  73 2.49 106 2.49  98 2.49  89 2.49  92 2.49  60 2.49  63 2.49
                            88 2.50  91 2.50  59 2.50  62 2.50
 103  0.313  0.563  0.465-  19 2.49  74 2.49 107 2.49  99 2.49  89 2.49  92 2.49  60 2.49  63 2.49
                            87 2.50  90 2.50  58 2.50  61 2.50
 104  0.313  0.313  0.396-  90 2.44  61 2.44  93 2.44  64 2.44  20 2.49  75 2.49 100 2.49 108 2.49

 105  0.313  0.313  0.604-  91 2.44  62 2.44  94 2.44  65 2.44  21 2.49  76 2.49 101 2.49 109 2.49

 106  0.313  0.313  0.535-  22 2.49  77 2.49 102 2.49 110 2.49  92 2.49  63 2.49  95 2.49  66 2.49
                            91 2.50  94 2.50  62 2.50  65 2.50
 107  0.313  0.313  0.465-  23 2.49  78 2.49  85 2.49 103 2.49  92 2.49  95 2.49  63 2.49  66 2.49
                            90 2.50  61 2.50  93 2.50  64 2.50
 108  0.313  0.063  0.396-  93 2.44  56 2.44  64 2.44  84 2.44  96 2.49  79 2.49  24 2.49 104 2.49

 109  0.313  0.063  0.604-  94 2.44  57 2.44  65 2.44  83 2.44  97 2.49  80 2.49  25 2.49 105 2.49

 110  0.313  0.063  0.535-  98 2.49  81 2.49  27 2.49 106 2.49  95 2.49  86 2.49  66 2.49  69 2.49
                            94 2.50  57 2.50  65 2.50  83 2.50
 111  0.937  0.937  0.571-  42 2.44  53 2.44  68 2.44  80 2.44  38 2.49  83 2.49  13 2.49  32 2.49
                            54 2.50  29 2.50  70 2.50  81 2.50
 112  0.937  0.937  0.429-  40 2.44  52 2.44  67 2.44  79 2.44  37 2.49  84 2.49  28 2.49  31 2.49
                            43 2.50  82 2.50  41 2.50   1 2.50

  LATTYP: Found a simple tetragonal cell.
 ALAT       =     9.9560634791
 C/A-ratio  =     5.0220652073
  
  Lattice vectors:
  
 A1 = (   9.9560634791,   0.0000000000,   0.0000000000)
 A2 = (   0.0000000000,   9.9560634791,   0.0000000000)
 A3 = (   0.0000000000,   0.0000000000,  50.0000000000)


Analysis of symmetry for initial positions (statically):
=====================================================================
 Subroutine PRICEL returns following result:
 
  LATTYP: Found a simple tetragonal cell.
 ALAT       =     2.4890158700
 C/A-ratio  =    20.0882608274
  
  Lattice vectors:
  
 A1 = (   2.4890158700,   0.0000000000,   0.0000000000)
 A2 = (   0.0000000000,   2.4890158700,   0.0000000000)
 A3 = (   0.0000000000,   0.0000000000,  50.0000000000)
 
  16 primitive cells build up your supercell.
 

 Routine SETGRP: Setting up the symmetry group for a 
 simple tetragonal supercell.


 Subroutine GETGRP returns: Found 16 space group operations
 (whereof  4 operations were pure point group operations)
 out of a pool of 16 trial point group operations.


The static configuration has the point symmetry C_2v.
 The point group associated with its full space group is D_4h.


Analysis of symmetry for dynamics (positions and initial velocities):
=====================================================================
 Subroutine PRICEL returns following result:
 
  LATTYP: Found a simple tetragonal cell.
 ALAT       =     2.4890158700
 C/A-ratio  =    20.0882608274
  
  Lattice vectors:
  
 A1 = (   2.4890158700,   0.0000000000,   0.0000000000)
 A2 = (   0.0000000000,   2.4890158700,   0.0000000000)
 A3 = (   0.0000000000,   0.0000000000,  50.0000000000)
 
  16 primitive cells build up your supercell.
 

 Routine SETGRP: Setting up the symmetry group for a 
 simple tetragonal supercell.


 Subroutine GETGRP returns: Found 16 space group operations
 (whereof  4 operations were pure point group operations)
 out of a pool of 16 trial point group operations.


The dynamic configuration has the point symmetry C_2v.
 The point group associated with its full space group is D_4h.


Analysis of structural, dynamic, and magnetic symmetry:
=====================================================================
 Subroutine PRICEL returns following result:
 
  LATTYP: Found a simple tetragonal cell.
 ALAT       =     2.4890158700
 C/A-ratio  =    20.0882608274
  
  Lattice vectors:
  
 A1 = (   2.4890158700,   0.0000000000,   0.0000000000)
 A2 = (   0.0000000000,   2.4890158700,   0.0000000000)
 A3 = (   0.0000000000,   0.0000000000,  50.0000000000)
 
  16 primitive cells build up your supercell.
 

 Routine SETGRP: Setting up the symmetry group for a 
 simple tetragonal supercell.


 Subroutine GETGRP returns: Found 16 space group operations
 (whereof  4 operations were pure point group operations)
 out of a pool of 16 trial point group operations.


The magnetic configuration has the point symmetry C_2v.
 The point group associated with its full space group is D_4h.


 Subroutine INISYM returns: Found 16 space group operations
 (whereof  4 operations are pure point group operations),
 and found    16 'primitive' translations



 KPOINTS: KPOINTS created by Atomic Simulation Env

Automatic generation of k-mesh.
Space group operators:
 irot       det(A)        alpha          n_x          n_y          n_z        tau_x        tau_y        tau_z
    1     1.000000     0.000002     1.000000     0.000000     0.000000     0.000000     0.000000     0.000000
    2    -1.000000   179.999999     0.000000     0.000000     1.000000     0.000000     0.000000     0.000000
    3     1.000000   180.000000     0.707107     0.707107     0.000000     0.000000     0.000000     0.000000
    4    -1.000000   180.000000     0.707107    -0.707107     0.000000     0.000000     0.000000     0.000000
    5    -1.000000     0.000002     1.000000     0.000000     0.000000     0.125000     0.125000     0.000000
    6     1.000000    90.000000     0.000000     0.000000    -1.000000     0.125000     0.000000     0.000000
    7    -1.000000    90.000000     0.000000     0.000000    -1.000000     0.000000     0.125000     0.000000
    8     1.000000   179.999999     0.000000     0.000000     1.000000     0.125000     0.125000     0.000000
    9     1.000000    90.000000     0.000000     0.000000     1.000000     0.000000     0.125000     0.000000
   10    -1.000000    90.000000     0.000000     0.000000     1.000000     0.125000     0.000000     0.000000
   11     1.000000   180.000000     0.000000     1.000000     0.000000     0.125000     0.000000     0.000000
   12    -1.000000   180.000000     0.000000     1.000000     0.000000     0.000000     0.125000     0.000000
   13    -1.000000   180.000000     0.707107     0.707107     0.000000     0.125000     0.125000     0.000000
   14     1.000000   180.000000     1.000000     0.000000     0.000000     0.000000     0.125000     0.000000
   15    -1.000000   180.000000     1.000000     0.000000     0.000000     0.125000     0.000000     0.000000
   16     1.000000   180.000000     0.707107    -0.707107     0.000000     0.125000     0.125000     0.000000
 
 Subroutine IBZKPT returns following result:
 ===========================================
 
 Found      6 irreducible k-points:
 
 Following reciprocal coordinates:
            Coordinates               Weight
  0.000000  0.000000  0.000000      1.000000
  0.250000  0.000000  0.000000      4.000000
  0.500000  0.000000  0.000000      2.000000
  0.250000  0.250000  0.000000      4.000000
  0.500000  0.250000  0.000000      4.000000
  0.500000  0.500000  0.000000      1.000000
 
 Following cartesian coordinates:
            Coordinates               Weight
  0.000000  0.000000  0.000000      1.000000
  0.025110  0.000000  0.000000      4.000000
  0.050221  0.000000  0.000000      2.000000
  0.025110  0.025110  0.000000      4.000000
  0.050221  0.025110  0.000000      4.000000
  0.050221  0.050221  0.000000      1.000000
 
 TETIRR: Found     26 inequivalent tetrahedra from       96


--------------------------------------------------------------------------------------------------------




 Dimension of arrays:
   k-points           NKPTS =      6   k-points in BZ     NKDIM =      6   number of bands    NBANDS=    756
   number of dos      NEDOS =   3000   number of ions     NIONS =    112
   non local maximal  LDIM  =      6   non local SUM 2l+1 LMDIM =     18
   total plane-waves  NPLWV = ******
   max r-space proj   IRMAX =      1   max aug-charges    IRDMAX=   5081
   dimension x,y,z NGX =    70 NGY =   70 NGZ =  336
   dimension x,y,z NGXF=   108 NGYF=  108 NGZF=  512
   support grid    NGXF=   108 NGYF=  108 NGZF=  512
   ions per type =             112
 NGX,Y,Z   is equivalent  to a cutoff of  11.69, 11.69, 11.17 a.u.
 NGXF,Y,Z  is equivalent  to a cutoff of  18.03, 18.03, 17.02 a.u.


 I would recommend the setting:
   dimension x,y,z NGX =    65 NGY =   65 NGZ =  326
 SYSTEM =  unknown system                          
 POSCAR =  Ni                                      

 Startparameter for this run:
   NWRITE =      2    write-flag & timer
   PREC   = high      normal or accurate (medium, high low for compatibility)
   ISTART =      0    job   : 0-new  1-cont  2-samecut
   ICHARG =      2    charge: 1-file 2-atom 10-const
   ISPIN  =      2    spin polarized calculation?
   LNONCOLLINEAR =      F non collinear calculations
   LSORBIT =      F    spin-orbit coupling
   INIWAV =      1    electr: 0-lowe 1-rand  2-diag
   LASPH  =      T    aspherical Exc in radial PAW
   METAGGA=      F    non-selfconsistent MetaGGA calc.

 Electronic Relaxation 1
   ENCUT  =  400.0 eV  29.40 Ry    5.42 a.u.  16.24 16.24 81.54*2*pi/ulx,y,z
   ENINI  =  400.0     initial cutoff
   ENAUG  =  544.6 eV  augmentation charge cutoff
   NELM   =    300;   NELMIN=  6; NELMDL=-12     # of ELM steps 
   EDIFF  = 0.1E-06   stopping-criterion for ELM
   LREAL  =      F    real-space projection
   NLSPLINE    = F    spline interpolate recip. space projectors
   LCOMPAT=      F    compatible to vasp.4.4
   GGA_COMPAT  = T    GGA compatible to vasp.4.4-vasp.4.6
   LMAXPAW     = -100 max onsite density
   LMAXMIX     =    2 max onsite mixed and CHGCAR
   VOSKOWN=      0    Vosko Wilk Nusair interpolation
   ROPT   =    0.00000
 Ionic relaxation
   EDIFFG = -.1E-02   stopping-criterion for IOM
   NSW    =      0    number of steps for IOM
   NBLOCK =      1;   KBLOCK =      1    inner block; outer block 
   IBRION =     -1    ionic relax: 0-MD 1-quasi-New 2-CG
   NFREE  =      0    steps in history (QN), initial steepest desc. (CG)
   ISIF   =      0    stress and relaxation
   IWAVPR =     10    prediction:  0-non 1-charg 2-wave 3-comb
   ISYM   =      2    0-nonsym 1-usesym 2-fastsym
   LCORR  =      T    Harris-Foulkes like correction to forces

   POTIM  = 0.5000    time-step for ionic-motion
   TEIN   =    0.0    initial temperature
   TEBEG  =    0.0;   TEEND  =   0.0 temperature during run
   SMASS  =  -3.00    Nose mass-parameter (am)
   estimated Nose-frequenzy (Omega)   =  0.10E-29 period in steps =****** mass=  -0.227E-26a.u.
   SCALEE = 1.0000    scale energy and forces
   NPACO  =    256;   APACO  = 16.0  distance and # of slots for P.C.
   PSTRESS=    0.0 pullay stress

  Mass of Ions in am
   POMASS =  58.69
  Ionic Valenz
   ZVAL   =  10.00
  Atomic Wigner-Seitz radii
   RWIGS  =  -1.00
  virtual crystal weights 
   VCA    =   1.00
   NELECT =    1120.0000    total number of electrons
   NUPDOWN=      -1.0000    fix difference up-down

 DOS related values:
   EMIN   =  10.00;   EMAX   =-10.00  energy-range for DOS
   EFERMI =   0.00
   ISMEAR =    -5;   SIGMA  =   0.20  broadening in eV -4-tet -1-fermi 0-gaus

 Electronic relaxation 2 (details)
   IALGO  =     48    algorithm
   LDIAG  =      T    sub-space diagonalisation (order eigenvalues)
   LSUBROT=      F    optimize rotation matrix (better conditioning)
   TURBO    =      0    0=normal 1=particle mesh
   IRESTART =      0    0=no restart 2=restart with 2 vectors
   NREBOOT  =      0    no. of reboots
   NMIN     =      0    reboot dimension
   EREF     =   0.00    reference energy to select bands
   IMIX   =      4    mixing-type and parameters
     AMIX     =   0.04;   BMIX     =  0.01
     AMIX_MAG =   0.40;   BMIX_MAG =  0.10
     AMIN     =   0.04
     WC   =   100.;   INIMIX=   1;  MIXPRE=   1;  MAXMIX= -45

 Intra band minimization:
   WEIMIN = 0.0000     energy-eigenvalue tresh-hold
   EBREAK =  0.33E-10  absolut break condition
   DEPER  =   0.30     relativ break condition  

   TIME   =   0.40     timestep for ELM

  volume/ion in A,a.u.               =      44.25       298.62
  Fermi-wavevector in a.u.,A,eV,Ry     =   0.997162  1.884363 13.528710  0.994332
  Thomas-Fermi vector in A             =   2.129300

 Write flags
   LWAVE  =      T    write WAVECAR
   LCHARG =      T    write CHGCAR
   LVTOT  =      T    write LOCPOT, total local potential
   LVHAR  =      F    write LOCPOT, Hartree potential only
   LELF   =      F    write electronic localiz. function (ELF)
   LORBIT =     11    0 simple, 1 ext, 2 COOP (PROOUT)


 Dipole corrections
   LMONO  =      F    monopole corrections only (constant potential shift)
   LDIPOL =      F    correct potential (dipole corrections)
   IDIPOL =      0    1-x, 2-y, 3-z, 4-all directions 
   EPSILON=  1.0000000 bulk dielectric constant

 Exchange correlation treatment:
   GGA     =    PE    GGA type
   LEXCH   =     8    internal setting for exchange type
   VOSKOWN=      0    Vosko Wilk Nusair interpolation
   LHFCALC =     F    Hartree Fock is set to
   LHFONE  =     F    Hartree Fock one center treatment
   AEXX    =    0.0000 exact exchange contribution

 Linear response parameters
   LEPSILON=     F    determine dielectric tensor
   LRPA    =     F    only Hartree local field effects (RPA)
   LNABLA  =     F    use nabla operator in PAW spheres
   LVEL    =     F    velocity operator in full k-point grid
   LINTERFAST=   F  fast interpolation
   KINTER  =     0    interpolate to denser k-point grid
   CSHIFT  =0.1000    complex shift for real part using Kramers Kronig
   OMEGAMAX=  -1.0    maximum frequency
   DEG_THRESHOLD= 0.2000000E-02 threshold for treating states as degnerate
   RTIME   =    0.100 relaxation time in fs

 Orbital magnetization related:
   ORBITALMAG=     F  switch on orbital magnetization
   LCHIMAG   =     F  perturbation theory with respect to B field
   DQ        =  0.001000  dq finite difference perturbation B field



--------------------------------------------------------------------------------------------------------


 Static calculation
 charge density and potential will be updated during run
 spin polarized calculation
 RMM-DIIS sequential band-by-band
 perform sub-space diagonalisation
    before iterative eigenvector-optimisation
 modified Broyden-mixing scheme, WC =      100.0
 initial mixing is a Kerker type mixing with AMIX =  0.0400 and BMIX =      0.0100
 Hartree-type preconditioning will be used
 using additional bands          196
 reciprocal scheme for non local part
 use partial core corrections
 calculate Harris-corrections to forces   (improved forces if not selfconsistent)
 use gradient corrections 
 use of overlap-Matrix (Vanderbilt PP)
 Fermi weights with tetrahedron method with Bloechl corrections


--------------------------------------------------------------------------------------------------------


  energy-cutoff  :      400.00
  volume of cell :     4956.16
      direct lattice vectors                 reciprocal lattice vectors
     9.956063479  0.000000000  0.000000000     0.100441304  0.000000000  0.000000000
     0.000000000  9.956063479  0.000000000     0.000000000  0.100441304  0.000000000
     0.000000000  0.000000000 50.000000000     0.000000000  0.000000000  0.020000000

  length of vectors
     9.956063479  9.956063479 50.000000000     0.100441304  0.100441304  0.020000000



 k-points in units of 2pi/SCALE and weight: KPOINTS created by Atomic Simulation Env
   0.00000000  0.00000000  0.00000000       0.062
   0.02511033  0.00000000  0.00000000       0.250
   0.05022065  0.00000000  0.00000000       0.125
   0.02511033  0.02511033  0.00000000       0.250
   0.05022065  0.02511033  0.00000000       0.250
   0.05022065  0.05022065  0.00000000       0.062

 k-points in reciprocal lattice and weights: KPOINTS created by Atomic Simulation Env
   0.00000000  0.00000000  0.00000000       0.062
   0.25000000  0.00000000  0.00000000       0.250
   0.50000000  0.00000000  0.00000000       0.125
   0.25000000  0.25000000  0.00000000       0.250
   0.50000000  0.25000000  0.00000000       0.250
   0.50000000  0.50000000  0.00000000       0.062

 position of ions in fractional coordinates (direct lattice) 
   0.06250000  0.06250000  0.46477067
   0.68750000  0.93750000  0.50000000
   0.68750000  0.68750000  0.42937185
   0.68750000  0.68750000  0.57062815
   0.68750000  0.68750000  0.50000000
   0.68750000  0.43750000  0.42937185
   0.68750000  0.43750000  0.57062815
   0.68750000  0.43750000  0.50000000
   0.68750000  0.18750000  0.42937185
   0.68750000  0.18750000  0.57062815
   0.68750000  0.18750000  0.50000000
   0.56250000  0.81250000  0.39550626
   0.68750000  0.93750000  0.57062815
   0.56250000  0.81250000  0.60449374
   0.56250000  0.81250000  0.46477067
   0.56250000  0.56250000  0.39550626
   0.56250000  0.56250000  0.60449374
   0.56250000  0.56250000  0.53522933
   0.56250000  0.56250000  0.46477067
   0.56250000  0.31250000  0.39550626
   0.56250000  0.31250000  0.60449374
   0.56250000  0.31250000  0.53522933
   0.56250000  0.31250000  0.46477067
   0.56250000  0.06250000  0.39550626
   0.56250000  0.06250000  0.60449374
   0.56250000  0.81250000  0.53522933
   0.56250000  0.06250000  0.53522933
   0.68750000  0.93750000  0.42937185
   0.81250000  0.06250000  0.53522933
   0.93750000  0.93750000  0.50000000
   0.93750000  0.68750000  0.42937185
   0.93750000  0.68750000  0.57062815
   0.93750000  0.68750000  0.50000000
   0.93750000  0.43750000  0.42937185
   0.93750000  0.43750000  0.57062815
   0.93750000  0.43750000  0.50000000
   0.93750000  0.18750000  0.42937185
   0.93750000  0.18750000  0.57062815
   0.93750000  0.18750000  0.50000000
   0.81250000  0.81250000  0.39550626
   0.81250000  0.06250000  0.46477067
   0.81250000  0.81250000  0.60449374
   0.81250000  0.81250000  0.46477067
   0.81250000  0.56250000  0.39550626
   0.81250000  0.56250000  0.60449374
   0.81250000  0.56250000  0.53522933
   0.81250000  0.56250000  0.46477067
   0.81250000  0.31250000  0.39550626
   0.81250000  0.31250000  0.60449374
   0.81250000  0.31250000  0.53522933
   0.81250000  0.31250000  0.46477067
   0.81250000  0.06250000  0.39550626
   0.81250000  0.06250000  0.60449374
   0.81250000  0.81250000  0.53522933
   0.56250000  0.06250000  0.46477067
   0.43750000  0.93750000  0.42937185
   0.43750000  0.93750000  0.57062815
   0.18750000  0.68750000  0.42937185
   0.18750000  0.68750000  0.57062815
   0.18750000  0.68750000  0.50000000
   0.18750000  0.43750000  0.42937185
   0.18750000  0.43750000  0.57062815
   0.18750000  0.43750000  0.50000000
   0.18750000  0.18750000  0.42937185
   0.18750000  0.18750000  0.57062815
   0.18750000  0.18750000  0.50000000
   0.06250000  0.81250000  0.39550626
   0.06250000  0.81250000  0.60449374
   0.18750000  0.93750000  0.50000000
   0.06250000  0.81250000  0.53522933
   0.06250000  0.56250000  0.39550626
   0.06250000  0.56250000  0.60449374
   0.06250000  0.56250000  0.53522933
   0.06250000  0.56250000  0.46477067
   0.06250000  0.31250000  0.39550626
   0.06250000  0.31250000  0.60449374
   0.06250000  0.31250000  0.53522933
   0.06250000  0.31250000  0.46477067
   0.06250000  0.06250000  0.39550626
   0.06250000  0.06250000  0.60449374
   0.06250000  0.06250000  0.53522933
   0.06250000  0.81250000  0.46477067
   0.18750000  0.93750000  0.57062815
   0.18750000  0.93750000  0.42937185
   0.31250000  0.06250000  0.46477067
   0.43750000  0.93750000  0.50000000
   0.43750000  0.68750000  0.42937185
   0.43750000  0.68750000  0.57062815
   0.43750000  0.68750000  0.50000000
   0.43750000  0.43750000  0.42937185
   0.43750000  0.43750000  0.57062815
   0.43750000  0.43750000  0.50000000
   0.43750000  0.18750000  0.42937185
   0.43750000  0.18750000  0.57062815
   0.43750000  0.18750000  0.50000000
   0.31250000  0.81250000  0.39550626
   0.31250000  0.81250000  0.60449374
   0.31250000  0.81250000  0.53522933
   0.31250000  0.81250000  0.46477067
   0.31250000  0.56250000  0.39550626
   0.31250000  0.56250000  0.60449374
   0.31250000  0.56250000  0.53522933
   0.31250000  0.56250000  0.46477067
   0.31250000  0.31250000  0.39550626
   0.31250000  0.31250000  0.60449374
   0.31250000  0.31250000  0.53522933
   0.31250000  0.31250000  0.46477067
   0.31250000  0.06250000  0.39550626
   0.31250000  0.06250000  0.60449374
   0.31250000  0.06250000  0.53522933
   0.93750000  0.93750000  0.57062815
   0.93750000  0.93750000  0.42937185

 position of ions in cartesian coordinates  (Angst):
   0.62225397  0.62225397 23.23853375
   6.84479364  9.33380951 25.00000000
   6.84479364  6.84479364 21.46859232
   6.84479364  6.84479364 28.53140768
   6.84479364  6.84479364 25.00000000
   6.84479364  4.35577777 21.46859232
   6.84479364  4.35577777 28.53140768
   6.84479364  4.35577777 25.00000000
   6.84479364  1.86676190 21.46859232
   6.84479364  1.86676190 28.53140768
   6.84479364  1.86676190 25.00000000
   5.60028571  8.08930158 19.77531309
   6.84479364  9.33380951 28.53140768
   5.60028571  8.08930158 30.22468691
   5.60028571  8.08930158 23.23853375
   5.60028571  5.60028571 19.77531309
   5.60028571  5.60028571 30.22468691
   5.60028571  5.60028571 26.76146625
   5.60028571  5.60028571 23.23853375
   5.60028571  3.11126984 19.77531309
   5.60028571  3.11126984 30.22468691
   5.60028571  3.11126984 26.76146625
   5.60028571  3.11126984 23.23853375
   5.60028571  0.62225397 19.77531309
   5.60028571  0.62225397 30.22468691
   5.60028571  8.08930158 26.76146625
   5.60028571  0.62225397 26.76146625
   6.84479364  9.33380951 21.46859232
   8.08930158  0.62225397 26.76146625
   9.33380951  9.33380951 25.00000000
   9.33380951  6.84479364 21.46859232
   9.33380951  6.84479364 28.53140768
   9.33380951  6.84479364 25.00000000
   9.33380951  4.35577777 21.46859232
   9.33380951  4.35577777 28.53140768
   9.33380951  4.35577777 25.00000000
   9.33380951  1.86676190 21.46859232
   9.33380951  1.86676190 28.53140768
   9.33380951  1.86676190 25.00000000
   8.08930158  8.08930158 19.77531309
   8.08930158  0.62225397 23.23853375
   8.08930158  8.08930158 30.22468691
   8.08930158  8.08930158 23.23853375
   8.08930158  5.60028571 19.77531309
   8.08930158  5.60028571 30.22468691
   8.08930158  5.60028571 26.76146625
   8.08930158  5.60028571 23.23853375
   8.08930158  3.11126984 19.77531309
   8.08930158  3.11126984 30.22468691
   8.08930158  3.11126984 26.76146625
   8.08930158  3.11126984 23.23853375
   8.08930158  0.62225397 19.77531309
   8.08930158  0.62225397 30.22468691
   8.08930158  8.08930158 26.76146625
   5.60028571  0.62225397 23.23853375
   4.35577777  9.33380951 21.46859232
   4.35577777  9.33380951 28.53140768
   1.86676190  6.84479364 21.46859232
   1.86676190  6.84479364 28.53140768
   1.86676190  6.84479364 25.00000000
   1.86676190  4.35577777 21.46859232
   1.86676190  4.35577777 28.53140768
   1.86676190  4.35577777 25.00000000
   1.86676190  1.86676190 21.46859232
   1.86676190  1.86676190 28.53140768
   1.86676190  1.86676190 25.00000000
   0.62225397  8.08930158 19.77531309
   0.62225397  8.08930158 30.22468691
   1.86676190  9.33380951 25.00000000
   0.62225397  8.08930158 26.76146625
   0.62225397  5.60028571 19.77531309
   0.62225397  5.60028571 30.22468691
   0.62225397  5.60028571 26.76146625
   0.62225397  5.60028571 23.23853375
   0.62225397  3.11126984 19.77531309
   0.62225397  3.11126984 30.22468691
   0.62225397  3.11126984 26.76146625
   0.62225397  3.11126984 23.23853375
   0.62225397  0.62225397 19.77531309
   0.62225397  0.62225397 30.22468691
   0.62225397  0.62225397 26.76146625
   0.62225397  8.08930158 23.23853375
   1.86676190  9.33380951 28.53140768
   1.86676190  9.33380951 21.46859232
   3.11126984  0.62225397 23.23853375
   4.35577777  9.33380951 25.00000000
   4.35577777  6.84479364 21.46859232
   4.35577777  6.84479364 28.53140768
   4.35577777  6.84479364 25.00000000
   4.35577777  4.35577777 21.46859232
   4.35577777  4.35577777 28.53140768
   4.35577777  4.35577777 25.00000000
   4.35577777  1.86676190 21.46859232
   4.35577777  1.86676190 28.53140768
   4.35577777  1.86676190 25.00000000
   3.11126984  8.08930158 19.77531309
   3.11126984  8.08930158 30.22468691
   3.11126984  8.08930158 26.76146625
   3.11126984  8.08930158 23.23853375
   3.11126984  5.60028571 19.77531309
   3.11126984  5.60028571 30.22468691
   3.11126984  5.60028571 26.76146625
   3.11126984  5.60028571 23.23853375
   3.11126984  3.11126984 19.77531309
   3.11126984  3.11126984 30.22468691
   3.11126984  3.11126984 26.76146625
   3.11126984  3.11126984 23.23853375
   3.11126984  0.62225397 19.77531309
   3.11126984  0.62225397 30.22468691
   3.11126984  0.62225397 26.76146625
   9.33380951  9.33380951 28.53140768
   9.33380951  9.33380951 21.46859232



--------------------------------------------------------------------------------------------------------


 k-point  1 :   0.0000 0.0000 0.0000  plane waves:   90015
 k-point  2 :   0.2500 0.0000 0.0000  plane waves:   89986
 k-point  3 :   0.5000 0.0000 0.0000  plane waves:   90088
 k-point  4 :   0.2500 0.2500 0.0000  plane waves:   90013
 k-point  5 :   0.5000 0.2500 0.0000  plane waves:   90058
 k-point  6 :   0.5000 0.5000 0.0000  plane waves:   89972

 maximum and minimum number of plane-waves per node :     90088    89972

 maximum number of plane-waves:     90088
 maximum index in each direction: 
   IXMAX=   16   IYMAX=   16   IZMAX=   81
   IXMIN=  -16   IYMIN=  -16   IZMIN=  -81

 NGX is ok and might be reduce to  66
 NGY is ok and might be reduce to  66
 NGZ is ok and might be reduce to 326

 serial   3D FFT for wavefunctions
 parallel 3D FFT for charge:
    minimum data exchange during FFTs selected (reduces bandwidth)


 total amount of memory used by VASP on root node   747229. kBytes
========================================================================

   base      :      30000. kBytes
   nonl-proj :     239279. kBytes
   fftplans  :      12300. kBytes
   grid      :     143849. kBytes
   one-center:       3483. kBytes
   wavefun   :     318318. kBytes

     INWAV:  cpu time    0.0000: real time    0.0000
 Broyden mixing: mesh for mixing (old mesh)
   NGX = 33   NGY = 33   NGZ =163
  (NGX  =108   NGY  =108   NGZ  =512)
  gives a total of 177507 points

 initial charge density was supplied:
 charge density of overlapping atoms calculated
 number of electron    1120.0000000 magnetization     112.0000000
 keeping initial charge density in first step


--------------------------------------------------------------------------------------------------------


 Maximum index for augmentation-charges          294 (set IRDMAX)


--------------------------------------------------------------------------------------------------------


 First call to EWALD:  gamma=   0.104
 Maximum number of real-space cells 4x 4x 1
 Maximum number of reciprocal cells 2x 2x 7

 FEWALD executed in parallel
    FEWALD:  cpu time    0.0080: real time    0.0089


----------------------------------------- Iteration    1(   1)  ---------------------------------------


    POTLOK:  cpu time    0.6400: real time    0.6493
    SETDIJ:  cpu time    2.8760: real time    2.8775
    EDDIAG:  cpu time   31.7520: real time   31.9832
  RMM-DIIS:  cpu time  335.1800: real time  335.2065
    ORTHCH:  cpu time    7.9320: real time    8.0702
 BZINTS: Fermi energy:  7.528804;********** electrons
         Band energy:5094.972644;  BLOECHL correction: -0.842373
       DOS:  cpu time    0.0680: real time    0.0704
    --------------------------------------------
      LOOP:  cpu time  378.4520: real time  378.8789

 eigenvalue-minimisations  :  9072
 total energy-change (2. order) : 0.8380130E+04  (-0.3489929E+05)
 number of electron    1120.0000000 magnetization     112.0000000
 augmentation part     1120.0000000 magnetization     112.0000000

 Free energy of the ion-electron system (eV)
  ---------------------------------------------------
  alpha Z        PSCENC =      1290.79062448
  Ewald energy   TEWEN  =   2632671.87993127
  -Hartree energ DENC   =  -2747428.27129962
  -exchange      EXHF   =         0.00000000
  -V(xc)+E(xc)   XCENC  =      3538.21280899
  PAW double counting   =    107837.31544351  -115323.11977476
  entropy T*S    EENTRO =         0.00000000
  eigenvalues    EBANDS =      5094.97264369
  atomic energy  EATOM  =    120698.34975850
  Solvation  Ediel_sol  =         0.00000000
  ---------------------------------------------------
  free energy    TOTEN  =      8380.13013606 eV

  energy without entropy =     8380.13013606  energy(sigma->0) =     8380.13013606


--------------------------------------------------------------------------------------------------------




----------------------------------------- Iteration    1(   2)  ---------------------------------------


    EDDIAG:  cpu time   31.7320: real time   31.9490
  RMM-DIIS:  cpu time  335.3120: real time  335.3451
    ORTHCH:  cpu time    7.8880: real time    8.0351
 BZINTS: Fermi energy:  1.900597;********** electrons
         Band energy:***********;  BLOECHL correction: -0.348108
       DOS:  cpu time    0.0760: real time    0.0739
    --------------------------------------------
      LOOP:  cpu time  375.0760: real time  375.4704

 eigenvalue-minimisations  :  9072
 total energy-change (2. order) :-0.6712298E+04  (-0.7653375E+04)
 number of electron    1120.0000000 magnetization     112.0000000
 augmentation part     1120.0000000 magnetization     112.0000000

 Free energy of the ion-electron system (eV)
  ---------------------------------------------------
  alpha Z        PSCENC =      1290.79062448
  Ewald energy   TEWEN  =   2632671.87993127
  -Hartree energ DENC   =  -2747428.27129962
  -exchange      EXHF   =         0.00000000
  -V(xc)+E(xc)   XCENC  =      3538.21280899
  PAW double counting   =    107837.31544351  -115323.11977476
  entropy T*S    EENTRO =         0.00000000
  eigenvalues    EBANDS =     -1617.32534241
  atomic energy  EATOM  =    120698.34975850
  Solvation  Ediel_sol  =         0.00000000
  ---------------------------------------------------
  free energy    TOTEN  =      1667.83214996 eV

  energy without entropy =     1667.83214996  energy(sigma->0) =     1667.83214996


--------------------------------------------------------------------------------------------------------




----------------------------------------- Iteration    1(   3)  ---------------------------------------


    EDDIAG:  cpu time   31.1680: real time   31.3884
  RMM-DIIS:  cpu time  335.3640: real time  335.3967
    ORTHCH:  cpu time    7.9320: real time    8.0757
 BZINTS: Fermi energy:  0.656379;********** electrons
         Band energy:***********;  BLOECHL correction: -2.373203
       DOS:  cpu time    0.0720: real time    0.0737
    --------------------------------------------
      LOOP:  cpu time  374.5520: real time  374.9534

 eigenvalue-minimisations  :  9072
 total energy-change (2. order) :-0.1808297E+04  (-0.1802495E+04)
 number of electron    1120.0000000 magnetization     112.0000000
 augmentation part     1120.0000000 magnetization     112.0000000

 Free energy of the ion-electron system (eV)
  ---------------------------------------------------
  alpha Z        PSCENC =      1290.79062448
  Ewald energy   TEWEN  =   2632671.87993127
  -Hartree energ DENC   =  -2747428.27129962
  -exchange      EXHF   =         0.00000000
  -V(xc)+E(xc)   XCENC  =      3538.21280899
  PAW double counting   =    107837.31544351  -115323.11977476
  entropy T*S    EENTRO =         0.00000000
  eigenvalues    EBANDS =     -3425.62209579
  atomic energy  EATOM  =    120698.34975850
  Solvation  Ediel_sol  =         0.00000000
  ---------------------------------------------------
  free energy    TOTEN  =      -140.46460342 eV

  energy without entropy =     -140.46460342  energy(sigma->0) =     -140.46460342


--------------------------------------------------------------------------------------------------------




----------------------------------------- Iteration    1(   4)  ---------------------------------------


    EDDIAG:  cpu time   31.4000: real time   31.6171
  RMM-DIIS:  cpu time  335.4600: real time  335.4907
    ORTHCH:  cpu time    7.7480: real time    7.8894
 BZINTS: Fermi energy: -0.658360;********** electrons
         Band energy:***********;  BLOECHL correction: -0.108126
       DOS:  cpu time    0.0760: real time    0.0776
    --------------------------------------------
      LOOP:  cpu time  374.7040: real time  375.0935

 eigenvalue-minimisations  :  9072
 total energy-change (2. order) :-0.3780920E+03  (-0.2743065E+03)
 number of electron    1120.0000000 magnetization     112.0000000
 augmentation part     1120.0000000 magnetization     112.0000000

 Free energy of the ion-electron system (eV)
  ---------------------------------------------------
  alpha Z        PSCENC =      1290.79062448
  Ewald energy   TEWEN  =   2632671.87993127
  -Hartree energ DENC   =  -2747428.27129962
  -exchange      EXHF   =         0.00000000
  -V(xc)+E(xc)   XCENC  =      3538.21280899
  PAW double counting   =    107837.31544351  -115323.11977476
  entropy T*S    EENTRO =         0.00000000
  eigenvalues    EBANDS =     -3803.71410558
  atomic energy  EATOM  =    120698.34975850
  Solvation  Ediel_sol  =         0.00000000
  ---------------------------------------------------
  free energy    TOTEN  =      -518.55661321 eV

  energy without entropy =     -518.55661321  energy(sigma->0) =     -518.55661321


--------------------------------------------------------------------------------------------------------




----------------------------------------- Iteration    1(   5)  ---------------------------------------


    EDDIAG:  cpu time   31.3800: real time   31.5994
  RMM-DIIS:  cpu time  335.3600: real time  335.3845
    ORTHCH:  cpu time    7.8040: real time    7.9500
 BZINTS: Fermi energy: -0.773211;********** electrons
         Band energy:***********;  BLOECHL correction: -0.134070
       DOS:  cpu time    0.0720: real time    0.0729
    --------------------------------------------
      LOOP:  cpu time  374.6440: real time  375.0369

 eigenvalue-minimisations  :  9072
 total energy-change (2. order) :-0.1317151E+03  (-0.6295427E+02)
 number of electron    1120.0000000 magnetization     112.0000000
 augmentation part     1120.0000000 magnetization     112.0000000

 Free energy of the ion-electron system (eV)
  ---------------------------------------------------
  alpha Z        PSCENC =      1290.79062448
  Ewald energy   TEWEN  =   2632671.87993127
  -Hartree energ DENC   =  -2747428.27129962
  -exchange      EXHF   =         0.00000000
  -V(xc)+E(xc)   XCENC  =      3538.21280899
  PAW double counting   =    107837.31544351  -115323.11977476
  entropy T*S    EENTRO =         0.00000000
  eigenvalues    EBANDS =     -3935.42919400
  atomic energy  EATOM  =    120698.34975850
  Solvation  Ediel_sol  =         0.00000000
  ---------------------------------------------------
  free energy    TOTEN  =      -650.27170162 eV

  energy without entropy =     -650.27170162  energy(sigma->0) =     -650.27170162


--------------------------------------------------------------------------------------------------------




----------------------------------------- Iteration    1(   6)  ---------------------------------------


    EDDIAG:  cpu time   31.1520: real time   31.3705
  RMM-DIIS:  cpu time  334.4760: real time  334.5067
    ORTHCH:  cpu time    7.8240: real time    7.9659
 BZINTS: Fermi energy: -0.830914;********** electrons
         Band energy:***********;  BLOECHL correction: -0.120436
       DOS:  cpu time    0.0680: real time    0.0694
    --------------------------------------------
      LOOP:  cpu time  373.5400: real time  373.9322

 eigenvalue-minimisations  :  9072
 total energy-change (2. order) :-0.3431141E+02  (-0.1660414E+02)
 number of electron    1120.0000000 magnetization     112.0000000
 augmentation part     1120.0000000 magnetization     112.0000000

 Free energy of the ion-electron system (eV)
  ---------------------------------------------------
  alpha Z        PSCENC =      1290.79062448
  Ewald energy   TEWEN  =   2632671.87993127
  -Hartree energ DENC   =  -2747428.27129962
  -exchange      EXHF   =         0.00000000
  -V(xc)+E(xc)   XCENC  =      3538.21280899
  PAW double counting   =    107837.31544351  -115323.11977476
  entropy T*S    EENTRO =         0.00000000
  eigenvalues    EBANDS =     -3969.74060064
  atomic energy  EATOM  =    120698.34975850
  Solvation  Ediel_sol  =         0.00000000
  ---------------------------------------------------
  free energy    TOTEN  =      -684.58310826 eV

  energy without entropy =     -684.58310826  energy(sigma->0) =     -684.58310826


--------------------------------------------------------------------------------------------------------




----------------------------------------- Iteration    1(   7)  ---------------------------------------


    EDDIAG:  cpu time   31.5760: real time   31.7916
  RMM-DIIS:  cpu time  334.5240: real time  334.5582
    ORTHCH:  cpu time    7.7640: real time    7.9100
 BZINTS: Fermi energy: -0.841662;********** electrons
         Band energy:***********;  BLOECHL correction: -0.105246
       DOS:  cpu time    0.0720: real time    0.0730
    --------------------------------------------
      LOOP:  cpu time  373.9400: real time  374.3359

 eigenvalue-minimisations  :  9072
 total energy-change (2. order) :-0.6148044E+01  (-0.4226771E+01)
 number of electron    1120.0000000 magnetization     112.0000000
 augmentation part     1120.0000000 magnetization     112.0000000

 Free energy of the ion-electron system (eV)
  ---------------------------------------------------
  alpha Z        PSCENC =      1290.79062448
  Ewald energy   TEWEN  =   2632671.87993127
  -Hartree energ DENC   =  -2747428.27129962
  -exchange      EXHF   =         0.00000000
  -V(xc)+E(xc)   XCENC  =      3538.21280899
  PAW double counting   =    107837.31544351  -115323.11977476
  entropy T*S    EENTRO =         0.00000000
  eigenvalues    EBANDS =     -3975.88864474
  atomic energy  EATOM  =    120698.34975850
  Solvation  Ediel_sol  =         0.00000000
  ---------------------------------------------------
  free energy    TOTEN  =      -690.73115237 eV

  energy without entropy =     -690.73115237  energy(sigma->0) =     -690.73115237


--------------------------------------------------------------------------------------------------------




----------------------------------------- Iteration    1(   8)  ---------------------------------------


    EDDIAG:  cpu time   31.6480: real time   31.8654
  RMM-DIIS:  cpu time  334.9360: real time  334.9636
    ORTHCH:  cpu time    7.7560: real time    7.8890
 BZINTS: Fermi energy: -0.844557;********** electrons
         Band energy:***********;  BLOECHL correction: -0.104912
       DOS:  cpu time    0.0760: real time    0.0726
    --------------------------------------------
      LOOP:  cpu time  374.4560: real time  374.8301

 eigenvalue-minimisations  :  9072
 total energy-change (2. order) :-0.1302698E+01  (-0.1069366E+01)
 number of electron    1120.0000000 magnetization     112.0000000
 augmentation part     1120.0000000 magnetization     112.0000000

 Free energy of the ion-electron system (eV)
  ---------------------------------------------------
  alpha Z        PSCENC =      1290.79062448
  Ewald energy   TEWEN  =   2632671.87993127
  -Hartree energ DENC   =  -2747428.27129962
  -exchange      EXHF   =         0.00000000
  -V(xc)+E(xc)   XCENC  =      3538.21280899
  PAW double counting   =    107837.31544351  -115323.11977476
  entropy T*S    EENTRO =         0.00000000
  eigenvalues    EBANDS =     -3977.19134264
  atomic energy  EATOM  =    120698.34975850
  Solvation  Ediel_sol  =         0.00000000
  ---------------------------------------------------
  free energy    TOTEN  =      -692.03385026 eV

  energy without entropy =     -692.03385026  energy(sigma->0) =     -692.03385026


--------------------------------------------------------------------------------------------------------




----------------------------------------- Iteration    1(   9)  ---------------------------------------


    EDDIAG:  cpu time   31.3720: real time   31.5694
  RMM-DIIS:  cpu time  778.1840: real time  778.2410
    ORTHCH:  cpu time    7.9200: real time    8.0686
 BZINTS: Fermi energy: -0.845443;********** electrons
         Band energy:***********;  BLOECHL correction: -0.104906
       DOS:  cpu time    0.0720: real time    0.0730
    --------------------------------------------
      LOOP:  cpu time  817.5640: real time  817.9707

 eigenvalue-minimisations  : 20913
 total energy-change (2. order) :-0.4275850E+00  (-0.4002653E+00)
 number of electron    1120.0000000 magnetization     112.0000000
 augmentation part     1120.0000000 magnetization     112.0000000

 Free energy of the ion-electron system (eV)
  ---------------------------------------------------
  alpha Z        PSCENC =      1290.79062448
  Ewald energy   TEWEN  =   2632671.87993127
  -Hartree energ DENC   =  -2747428.27129962
  -exchange      EXHF   =         0.00000000
  -V(xc)+E(xc)   XCENC  =      3538.21280899
  PAW double counting   =    107837.31544351  -115323.11977476
  entropy T*S    EENTRO =         0.00000000
  eigenvalues    EBANDS =     -3977.61892760
  atomic energy  EATOM  =    120698.34975850
  Solvation  Ediel_sol  =         0.00000000
  ---------------------------------------------------
  free energy    TOTEN  =      -692.46143522 eV

  energy without entropy =     -692.46143522  energy(sigma->0) =     -692.46143522


--------------------------------------------------------------------------------------------------------




----------------------------------------- Iteration    1(  10)  ---------------------------------------


    EDDIAG:  cpu time   31.6680: real time   31.8871
  RMM-DIIS:  cpu time  930.8160: real time  930.9206
    ORTHCH:  cpu time    7.8960: real time    8.0390
 BZINTS: Fermi energy: -0.845536;********** electrons
         Band energy:***********;  BLOECHL correction: -0.104901
       DOS:  cpu time    0.0680: real time    0.0706
    --------------------------------------------
      LOOP:  cpu time  970.5080: real time  970.9807

 eigenvalue-minimisations  : 25286
 total energy-change (2. order) :-0.4433999E-01  (-0.4074336E-01)
 number of electron    1120.0000000 magnetization     112.0000000
 augmentation part     1120.0000000 magnetization     112.0000000

 Free energy of the ion-electron system (eV)
  ---------------------------------------------------
  alpha Z        PSCENC =      1290.79062448
  Ewald energy   TEWEN  =   2632671.87993127
  -Hartree energ DENC   =  -2747428.27129962
  -exchange      EXHF   =         0.00000000
  -V(xc)+E(xc)   XCENC  =      3538.21280899
  PAW double counting   =    107837.31544351  -115323.11977476
  entropy T*S    EENTRO =         0.00000000
  eigenvalues    EBANDS =     -3977.66326759
  atomic energy  EATOM  =    120698.34975850
  Solvation  Ediel_sol  =         0.00000000
  ---------------------------------------------------
  free energy    TOTEN  =      -692.50577522 eV

  energy without entropy =     -692.50577522  energy(sigma->0) =     -692.50577522


--------------------------------------------------------------------------------------------------------




----------------------------------------- Iteration    1(  11)  ---------------------------------------


    EDDIAG:  cpu time   31.7040: real time   31.9226
  RMM-DIIS:  cpu time  923.1080: real time  923.4764
    ORTHCH:  cpu time    7.7360: real time    7.8805
 BZINTS: Fermi energy: -0.845542;********** electrons
         Band energy:***********;  BLOECHL correction: -0.104902
       DOS:  cpu time    0.0720: real time    0.0734
    --------------------------------------------
      LOOP:  cpu time  962.6240: real time  963.3559

 eigenvalue-minimisations  : 25078
 total energy-change (2. order) :-0.2406846E-02  (-0.2387561E-02)
 number of electron    1120.0000000 magnetization     112.0000000
 augmentation part     1120.0000000 magnetization     112.0000000

 Free energy of the ion-electron system (eV)
  ---------------------------------------------------
  alpha Z        PSCENC =      1290.79062448
  Ewald energy   TEWEN  =   2632671.87993127
  -Hartree energ DENC   =  -2747428.27129962
  -exchange      EXHF   =         0.00000000
  -V(xc)+E(xc)   XCENC  =      3538.21280899
  PAW double counting   =    107837.31544351  -115323.11977476
  entropy T*S    EENTRO =         0.00000000
  eigenvalues    EBANDS =     -3977.66567444
  atomic energy  EATOM  =    120698.34975850
  Solvation  Ediel_sol  =         0.00000000
  ---------------------------------------------------
  free energy    TOTEN  =      -692.50818206 eV

  energy without entropy =     -692.50818206  energy(sigma->0) =     -692.50818206


--------------------------------------------------------------------------------------------------------




----------------------------------------- Iteration    1(  12)  ---------------------------------------


    EDDIAG:  cpu time   31.5600: real time   31.7711
  RMM-DIIS:  cpu time  814.2760: real time  814.3508
    ORTHCH:  cpu time    7.8600: real time    8.0063
 BZINTS: Fermi energy: -0.845543;********** electrons
         Band energy:***********;  BLOECHL correction: -0.104903
       DOS:  cpu time    0.0720: real time    0.0715
    CHARGE:  cpu time   10.6880: real time   10.6937
    MIXING:  cpu time    0.0120: real time    0.0121
    --------------------------------------------
      LOOP:  cpu time  864.5040: real time  864.9434

 eigenvalue-minimisations  : 22028
 total energy-change (2. order) :-0.5587577E-03  (-0.5538986E-03)
 number of electron    1120.0000076 magnetization     107.3258163
 augmentation part      632.1816595 magnetization      92.0876715

 Broyden mixing:
  rms(total) = 0.10071E+02    rms(broyden)= 0.10070E+02
  rms(prec ) = 0.10164E+02
  weight for this iteration     100.00

 Free energy of the ion-electron system (eV)
  ---------------------------------------------------
  alpha Z        PSCENC =      1290.79062448
  Ewald energy   TEWEN  =   2632671.87993127
  -Hartree energ DENC   =  -2747428.27129962
  -exchange      EXHF   =         0.00000000
  -V(xc)+E(xc)   XCENC  =      3538.21280899
  PAW double counting   =    107837.31544351  -115323.11977476
  entropy T*S    EENTRO =         0.00000000
  eigenvalues    EBANDS =     -3977.66623319
  atomic energy  EATOM  =    120698.34975850
  Solvation  Ediel_sol  =         0.00000000
  ---------------------------------------------------
  free energy    TOTEN  =      -692.50874082 eV

  energy without entropy =     -692.50874082  energy(sigma->0) =     -692.50874082


--------------------------------------------------------------------------------------------------------




----------------------------------------- Iteration    1(  13)  ---------------------------------------


    POTLOK:  cpu time    0.5680: real time    0.5772
    SETDIJ:  cpu time    2.7240: real time    2.7233
    EDDIAG:  cpu time   31.7880: real time   32.0046
  RMM-DIIS:  cpu time  747.2840: real time  747.3413
    ORTHCH:  cpu time    7.9040: real time    8.0481
 BZINTS: Fermi energy: -0.758059;********** electrons
         Band energy:***********;  BLOECHL correction: -0.086418
       DOS:  cpu time    0.0720: real time    0.0725
    CHARGE:  cpu time   10.5240: real time   10.5245
    MIXING:  cpu time    0.0080: real time    0.0098
    --------------------------------------------
      LOOP:  cpu time  800.8760: real time  801.3037

 eigenvalue-minimisations  : 19575
 total energy-change (2. order) : 0.2351898E+02  (-0.1611771E+01)
 number of electron    1120.0000011 magnetization     104.9329111
 augmentation part      640.5763751 magnetization      93.0488281

 Broyden mixing:
  rms(total) = 0.10108E+02    rms(broyden)= 0.10108E+02
  rms(prec ) = 0.10321E+02
  weight for this iteration     100.00

 eigenvalues of (default mixing * dielectric matrix)
  average eigenvalue GAMMA=   0.3710
  0.3710

 Free energy of the ion-electron system (eV)
  ---------------------------------------------------
  alpha Z        PSCENC =      1290.79062448
  Ewald energy   TEWEN  =   2632671.87993127
  -Hartree energ DENC   =  -2747654.77790927
  -exchange      EXHF   =         0.00000000
  -V(xc)+E(xc)   XCENC  =      3524.06887359
  PAW double counting   =    108457.18416156  -115895.23778372
  entropy T*S    EENTRO =         0.00000000
  eigenvalues    EBANDS =     -3761.24742126
  atomic energy  EATOM  =    120698.34975850
  Solvation  Ediel_sol  =         0.00000000
  ---------------------------------------------------
  free energy    TOTEN  =      -668.98976484 eV

  energy without entropy =     -668.98976484  energy(sigma->0) =     -668.98976484


--------------------------------------------------------------------------------------------------------




----------------------------------------- Iteration    1(  14)  ---------------------------------------


    POTLOK:  cpu time    0.5960: real time    0.6036
    SETDIJ:  cpu time    2.7200: real time    2.7213
    EDDIAG:  cpu time   31.4640: real time   31.6779
  RMM-DIIS:  cpu time  761.0840: real time  761.1418
    ORTHCH:  cpu time    7.8680: real time    8.0107
 BZINTS: Fermi energy: -1.431971;********** electrons
         Band energy:***********;  BLOECHL correction: -0.054665
       DOS:  cpu time    0.0760: real time    0.0745
    CHARGE:  cpu time   10.5000: real time   10.5042
    MIXING:  cpu time    0.0080: real time    0.0094
    --------------------------------------------
      LOOP:  cpu time  814.3200: real time  814.7465

 eigenvalue-minimisations  : 20089
 total energy-change (2. order) : 0.8911774E+01  (-0.7882192E+00)
 number of electron    1120.0000112 magnetization      80.4266788
 augmentation part      647.8507225 magnetization      67.3061362

 Broyden mixing:
  rms(total) = 0.99701E+01    rms(broyden)= 0.99699E+01
  rms(prec ) = 0.10255E+02
  weight for this iteration     100.00

 eigenvalues of (default mixing * dielectric matrix)
  average eigenvalue GAMMA=   1.6581
  3.1054  0.2108

 Free energy of the ion-electron system (eV)
  ---------------------------------------------------
  alpha Z        PSCENC =      1290.79062448
  Ewald energy   TEWEN  =   2632671.87993127
  -Hartree energ DENC   =  -2746873.49047926
  -exchange      EXHF   =         0.00000000
  -V(xc)+E(xc)   XCENC  =      3518.58648318
  PAW double counting   =    108739.88211695  -116160.33045967
  entropy T*S    EENTRO =         0.00000000
  eigenvalues    EBANDS =     -4545.74596621
  atomic energy  EATOM  =    120698.34975850
  Solvation  Ediel_sol  =         0.00000000
  ---------------------------------------------------
  free energy    TOTEN  =      -660.07799075 eV

  energy without entropy =     -660.07799075  energy(sigma->0) =     -660.07799075


--------------------------------------------------------------------------------------------------------




----------------------------------------- Iteration    1(  15)  ---------------------------------------


    POTLOK:  cpu time    0.5640: real time    0.5738
    SETDIJ:  cpu time    2.7200: real time    2.7192
    EDDIAG:  cpu time   32.1000: real time   32.3205
  RMM-DIIS:  cpu time  737.4400: real time  737.4974
    ORTHCH:  cpu time    7.7560: real time    7.9042
 BZINTS: Fermi energy: -1.927398;********** electrons
         Band energy:***********;  BLOECHL correction: -0.085532
       DOS:  cpu time    0.0760: real time    0.0758
    CHARGE:  cpu time   10.4840: real time   10.4824
    MIXING:  cpu time    0.0080: real time    0.0099
    --------------------------------------------
      LOOP:  cpu time  791.1520: real time  791.5859

 eigenvalue-minimisations  : 19349
 total energy-change (2. order) : 0.7808636E+02  (-0.2277334E+02)
 number of electron    1120.0000040 magnetization      78.7800861
 augmentation part      688.8637124 magnetization      74.9573074

 Broyden mixing:
  rms(total) = 0.52809E+01    rms(broyden)= 0.52804E+01
  rms(prec ) = 0.53349E+01
  weight for this iteration     100.00

 eigenvalues of (default mixing * dielectric matrix)
  average eigenvalue GAMMA=   1.6253
  3.9358  0.7302  0.2101

 Free energy of the ion-electron system (eV)
  ---------------------------------------------------
  alpha Z        PSCENC =      1290.79062448
  Ewald energy   TEWEN  =   2632671.87993127
  -Hartree energ DENC   =  -2746744.61286919
  -exchange      EXHF   =         0.00000000
  -V(xc)+E(xc)   XCENC  =      3465.30761242
  PAW double counting   =    112065.92477109  -119308.17280707
  entropy T*S    EENTRO =         0.00000000
  eigenvalues    EBANDS =     -4721.45865655
  atomic energy  EATOM  =    120698.34975850
  Solvation  Ediel_sol  =         0.00000000
  ---------------------------------------------------
  free energy    TOTEN  =      -581.99163505 eV

  energy without entropy =     -581.99163505  energy(sigma->0) =     -581.99163505


--------------------------------------------------------------------------------------------------------




----------------------------------------- Iteration    1(  16)  ---------------------------------------


    POTLOK:  cpu time    0.5680: real time    0.5748
    SETDIJ:  cpu time    2.7240: real time    2.7234
    EDDIAG:  cpu time   31.9720: real time   32.1940
  RMM-DIIS:  cpu time  757.7240: real time  757.7797
    ORTHCH:  cpu time    7.8760: real time    8.0148
 BZINTS: Fermi energy: -1.956522;********** electrons
         Band energy:***********;  BLOECHL correction: -0.084844
       DOS:  cpu time    0.0760: real time    0.0765
    CHARGE:  cpu time   10.4880: real time   10.4905
    MIXING:  cpu time    0.0120: real time    0.0111
    --------------------------------------------
      LOOP:  cpu time  811.4400: real time  811.8684

 eigenvalue-minimisations  : 19950
 total energy-change (2. order) :-0.1431260E+01  (-0.5848492E+00)
 number of electron    1120.0000048 magnetization      74.3734120
 augmentation part      690.8970880 magnetization      71.1711083

 Broyden mixing:
  rms(total) = 0.49546E+01    rms(broyden)= 0.49544E+01
  rms(prec ) = 0.50326E+01
  weight for this iteration     100.00

 eigenvalues of (default mixing * dielectric matrix)
  average eigenvalue GAMMA=   1.9859
  5.9427  0.2127  1.0939  0.6942

 Free energy of the ion-electron system (eV)
  ---------------------------------------------------
  alpha Z        PSCENC =      1290.79062448
  Ewald energy   TEWEN  =   2632671.87993127
  -Hartree energ DENC   =  -2746747.43866930
  -exchange      EXHF   =         0.00000000
  -V(xc)+E(xc)   XCENC  =      3459.50710510
  PAW double counting   =    112498.91828306  -119740.49598261
  entropy T*S    EENTRO =         0.00000000
  eigenvalues    EBANDS =     -4714.93394590
  atomic energy  EATOM  =    120698.34975850
  Solvation  Ediel_sol  =         0.00000000
  ---------------------------------------------------
  free energy    TOTEN  =      -583.42289541 eV

  energy without entropy =     -583.42289541  energy(sigma->0) =     -583.42289541


--------------------------------------------------------------------------------------------------------




----------------------------------------- Iteration    1(  17)  ---------------------------------------


    POTLOK:  cpu time    0.6120: real time    0.6197
    SETDIJ:  cpu time    2.7240: real time    2.7231
    EDDIAG:  cpu time   32.0920: real time   32.3106
  RMM-DIIS:  cpu time  732.9280: real time  732.9838
    ORTHCH:  cpu time    7.9640: real time    8.1083
 BZINTS: Fermi energy: -1.980025;********** electrons
         Band energy:***********;  BLOECHL correction: -0.088028
       DOS:  cpu time    0.0760: real time    0.0760
    CHARGE:  cpu time   10.5120: real time   10.5133
    MIXING:  cpu time    0.0120: real time    0.0109
    --------------------------------------------
      LOOP:  cpu time  786.9200: real time  787.3488

 eigenvalue-minimisations  : 19325
 total energy-change (2. order) :-0.1421341E+01  (-0.4687436E+00)
 number of electron    1120.0000058 magnetization      69.3953929
 augmentation part      696.6205834 magnetization      66.7571519

 Broyden mixing:
  rms(total) = 0.40801E+01    rms(broyden)= 0.40800E+01
  rms(prec ) = 0.41248E+01
  weight for this iteration     100.00

 eigenvalues of (default mixing * dielectric matrix)
  average eigenvalue GAMMA=   2.4777
  7.5506  2.9308  0.2122  1.0055  0.6891

 Free energy of the ion-electron system (eV)
  ---------------------------------------------------
  alpha Z        PSCENC =      1290.79062448
  Ewald energy   TEWEN  =   2632671.87993127
  -Hartree energ DENC   =  -2746762.03081562
  -exchange      EXHF   =         0.00000000
  -V(xc)+E(xc)   XCENC  =      3447.15564159
  PAW double counting   =    113698.27719123  -120943.05358165
  entropy T*S    EENTRO =         0.00000000
  eigenvalues    EBANDS =     -4686.21298666
  atomic energy  EATOM  =    120698.34975850
  Solvation  Ediel_sol  =         0.00000000
[...]
      5.60029      8.08930     23.23853         0.000000     -0.000000     -0.001796
      5.60029      5.60029     19.77531        -0.000000      0.000000      0.001873
      5.60029      5.60029     30.22469        -0.000000      0.000000     -0.001873
      5.60029      5.60029     26.76147         0.000000     -0.000000      0.001796
      5.60029      5.60029     23.23853         0.000000     -0.000000     -0.001796
      5.60029      3.11127     19.77531        -0.000000      0.000000      0.001873
      5.60029      3.11127     30.22469        -0.000000      0.000000     -0.001873
      5.60029      3.11127     26.76147         0.000000     -0.000000      0.001796
      5.60029      3.11127     23.23853         0.000000      0.000000     -0.001796
      5.60029      0.62225     19.77531        -0.000000      0.000000      0.001873
      5.60029      0.62225     30.22469        -0.000000      0.000000     -0.001873
      5.60029      8.08930     26.76147         0.000000     -0.000000      0.001796
      5.60029      0.62225     26.76147         0.000000     -0.000000      0.001796
      6.84479      9.33381     21.46859        -0.000000      0.000000      0.012358
      8.08930      0.62225     26.76147         0.000000     -0.000000      0.001796
      9.33381      9.33381     25.00000        -0.000000      0.000000      0.000000
      9.33381      6.84479     21.46859         0.000000      0.000000      0.012358
      9.33381      6.84479     28.53141        -0.000000      0.000000     -0.012358
      9.33381      6.84479     25.00000         0.000000     -0.000000      0.000000
      9.33381      4.35578     21.46859         0.000000      0.000000      0.012358
      9.33381      4.35578     28.53141        -0.000000      0.000000     -0.012358
      9.33381      4.35578     25.00000        -0.000000     -0.000000      0.000000
      9.33381      1.86676     21.46859        -0.000000      0.000000      0.012358
      9.33381      1.86676     28.53141        -0.000000     -0.000000     -0.012358
      9.33381      1.86676     25.00000        -0.000000      0.000000      0.000000
      8.08930      8.08930     19.77531        -0.000000      0.000000      0.001873
      8.08930      0.62225     23.23853         0.000000      0.000000     -0.001796
      8.08930      8.08930     30.22469        -0.000000      0.000000     -0.001873
      8.08930      8.08930     23.23853         0.000000     -0.000000     -0.001796
      8.08930      5.60029     19.77531        -0.000000      0.000000      0.001873
      8.08930      5.60029     30.22469        -0.000000      0.000000     -0.001873
      8.08930      5.60029     26.76147         0.000000     -0.000000      0.001796
      8.08930      5.60029     23.23853         0.000000      0.000000     -0.001796
      8.08930      3.11127     19.77531        -0.000000      0.000000      0.001873
      8.08930      3.11127     30.22469        -0.000000      0.000000     -0.001873
      8.08930      3.11127     26.76147         0.000000     -0.000000      0.001796
      8.08930      3.11127     23.23853         0.000000      0.000000     -0.001796
      8.08930      0.62225     19.77531        -0.000000      0.000000      0.001873
      8.08930      0.62225     30.22469        -0.000000      0.000000     -0.001873
      8.08930      8.08930     26.76147         0.000000     -0.000000      0.001796
      5.60029      0.62225     23.23853         0.000000     -0.000000     -0.001796
      4.35578      9.33381     21.46859        -0.000000      0.000000      0.012358
      4.35578      9.33381     28.53141        -0.000000      0.000000     -0.012358
      1.86676      6.84479     21.46859         0.000000      0.000000      0.012358
      1.86676      6.84479     28.53141        -0.000000      0.000000     -0.012358
      1.86676      6.84479     25.00000        -0.000000     -0.000000      0.000000
      1.86676      4.35578     21.46859         0.000000      0.000000      0.012358
      1.86676      4.35578     28.53141        -0.000000     -0.000000     -0.012358
      1.86676      4.35578     25.00000         0.000000     -0.000000      0.000000
      1.86676      1.86676     21.46859        -0.000000      0.000000      0.012358
      1.86676      1.86676     28.53141        -0.000000      0.000000     -0.012358
      1.86676      1.86676     25.00000         0.000000      0.000000      0.000000
      0.62225      8.08930     19.77531        -0.000000      0.000000      0.001873
      0.62225      8.08930     30.22469        -0.000000      0.000000     -0.001873
      1.86676      9.33381     25.00000         0.000000     -0.000000      0.000000
      0.62225      8.08930     26.76147         0.000000     -0.000000      0.001796
      0.62225      5.60029     19.77531        -0.000000      0.000000      0.001873
      0.62225      5.60029     30.22469        -0.000000      0.000000     -0.001873
      0.62225      5.60029     26.76147         0.000000     -0.000000      0.001796
      0.62225      5.60029     23.23853         0.000000     -0.000000     -0.001796
      0.62225      3.11127     19.77531        -0.000000      0.000000      0.001873
      0.62225      3.11127     30.22469        -0.000000      0.000000     -0.001873
      0.62225      3.11127     26.76147         0.000000     -0.000000      0.001796
      0.62225      3.11127     23.23853         0.000000      0.000000     -0.001796
      0.62225      0.62225     19.77531        -0.000000      0.000000      0.001873
      0.62225      0.62225     30.22469        -0.000000      0.000000     -0.001873
      0.62225      0.62225     26.76147         0.000000     -0.000000      0.001796
      0.62225      8.08930     23.23853         0.000000     -0.000000     -0.001796
      1.86676      9.33381     28.53141        -0.000000      0.000000     -0.012358
      1.86676      9.33381     21.46859        -0.000000      0.000000      0.012358
      3.11127      0.62225     23.23853         0.000000     -0.000000     -0.001796
      4.35578      9.33381     25.00000         0.000000     -0.000000      0.000000
      4.35578      6.84479     21.46859         0.000000      0.000000      0.012358
      4.35578      6.84479     28.53141        -0.000000      0.000000     -0.012358
      4.35578      6.84479     25.00000         0.000000     -0.000000      0.000000
      4.35578      4.35578     21.46859         0.000000      0.000000      0.012358
      4.35578      4.35578     28.53141        -0.000000      0.000000     -0.012358
      4.35578      4.35578     25.00000        -0.000000     -0.000000      0.000000
      4.35578      1.86676     21.46859        -0.000000      0.000000      0.012358
      4.35578      1.86676     28.53141        -0.000000     -0.000000     -0.012358
      4.35578      1.86676     25.00000        -0.000000     -0.000000      0.000000
      3.11127      8.08930     19.77531        -0.000000      0.000000      0.001873
      3.11127      8.08930     30.22469        -0.000000      0.000000     -0.001873
      3.11127      8.08930     26.76147         0.000000     -0.000000      0.001796
      3.11127      8.08930     23.23853         0.000000      0.000000     -0.001796
      3.11127      5.60029     19.77531        -0.000000      0.000000      0.001873
      3.11127      5.60029     30.22469        -0.000000      0.000000     -0.001873
      3.11127      5.60029     26.76147         0.000000     -0.000000      0.001796
      3.11127      5.60029     23.23853         0.000000     -0.000000     -0.001796
      3.11127      3.11127     19.77531        -0.000000      0.000000      0.001873
      3.11127      3.11127     30.22469        -0.000000      0.000000     -0.001873
      3.11127      3.11127     26.76147         0.000000     -0.000000      0.001796
      3.11127      3.11127     23.23853         0.000000     -0.000000     -0.001796
      3.11127      0.62225     19.77531        -0.000000      0.000000      0.001873
      3.11127      0.62225     30.22469        -0.000000      0.000000     -0.001873
      3.11127      0.62225     26.76147         0.000000     -0.000000      0.001796
      9.33381      9.33381     28.53141        -0.000000     -0.000000     -0.012358
      9.33381      9.33381     21.46859        -0.000000      0.000000      0.012358
 -----------------------------------------------------------------------------------
    total drift:                               -0.000037     -0.000037      0.000000


--------------------------------------------------------------------------------------------------------



  FREE ENERGIE OF THE ION-ELECTRON SYSTEM (eV)
  ---------------------------------------------------
  free  energy   TOTEN  =      -585.44666956 eV

  energy  without entropy=     -585.44666956  energy(sigma->0) =     -585.44666956



--------------------------------------------------------------------------------------------------------


    POTLOK:  cpu time    3.4000: real time    3.4099


--------------------------------------------------------------------------------------------------------


 writing wavefunctions
     LOOP+:  cpu time47036.8360: real time49535.3773
    4ORBIT:  cpu time    0.0000: real time    0.0000



 total charge     

# of ion     s       p       d       tot
----------------------------------------
  1        0.496   0.493   8.310   9.299
  2        0.497   0.494   8.313   9.304
  3        0.500   0.510   8.312   9.322
  4        0.500   0.510   8.312   9.322
  5        0.497   0.494   8.313   9.304
  6        0.500   0.510   8.312   9.322
  7        0.500   0.510   8.312   9.322
  8        0.497   0.494   8.313   9.304
  9        0.500   0.510   8.312   9.322
 10        0.500   0.510   8.312   9.322
 11        0.497   0.494   8.313   9.304
 12        0.479   0.352   8.323   9.154
 13        0.500   0.510   8.312   9.322
 14        0.479   0.352   8.323   9.154
 15        0.496   0.493   8.310   9.299
 16        0.479   0.352   8.323   9.154
 17        0.479   0.352   8.323   9.154
 18        0.496   0.493   8.310   9.299
 19        0.496   0.493   8.310   9.299
 20        0.479   0.352   8.323   9.154
 21        0.479   0.352   8.323   9.154
 22        0.496   0.493   8.310   9.299
 23        0.496   0.493   8.310   9.299
 24        0.479   0.352   8.323   9.154
 25        0.479   0.352   8.323   9.154
 26        0.496   0.493   8.310   9.299
 27        0.496   0.493   8.310   9.299
 28        0.500   0.510   8.312   9.322
 29        0.496   0.493   8.310   9.299
 30        0.497   0.494   8.313   9.304
 31        0.500   0.510   8.312   9.322
 32        0.500   0.510   8.312   9.322
 33        0.497   0.494   8.313   9.304
 34        0.500   0.510   8.312   9.322
 35        0.500   0.510   8.312   9.322
 36        0.497   0.494   8.313   9.304
 37        0.500   0.510   8.312   9.322
 38        0.500   0.510   8.312   9.322
 39        0.497   0.494   8.313   9.304
 40        0.479   0.352   8.323   9.154
 41        0.496   0.493   8.310   9.299
 42        0.479   0.352   8.323   9.154
 43        0.496   0.493   8.310   9.299
 44        0.479   0.352   8.323   9.154
 45        0.479   0.352   8.323   9.154
 46        0.496   0.493   8.310   9.299
 47        0.496   0.493   8.310   9.299
 48        0.479   0.352   8.323   9.154
 49        0.479   0.352   8.323   9.154
 50        0.496   0.493   8.310   9.299
 51        0.496   0.493   8.310   9.299
 52        0.479   0.352   8.323   9.154
 53        0.479   0.352   8.323   9.154
 54        0.496   0.493   8.310   9.299
 55        0.496   0.493   8.310   9.299
 56        0.500   0.510   8.312   9.322
 57        0.500   0.510   8.312   9.322
 58        0.500   0.510   8.312   9.322
 59        0.500   0.510   8.312   9.322
 60        0.497   0.494   8.313   9.304
 61        0.500   0.510   8.312   9.322
 62        0.500   0.510   8.312   9.322
 63        0.497   0.494   8.313   9.304
 64        0.500   0.510   8.312   9.322
 65        0.500   0.510   8.312   9.322
 66        0.497   0.494   8.313   9.304
 67        0.479   0.352   8.323   9.154
 68        0.479   0.352   8.323   9.154
 69        0.497   0.494   8.313   9.304
 70        0.496   0.493   8.310   9.299
 71        0.479   0.352   8.323   9.154
 72        0.479   0.352   8.323   9.154
 73        0.496   0.493   8.310   9.299
 74        0.496   0.493   8.310   9.299
 75        0.479   0.352   8.323   9.154
 76        0.479   0.352   8.323   9.154
 77        0.496   0.493   8.310   9.299
 78        0.496   0.493   8.310   9.299
 79        0.479   0.352   8.323   9.154
 80        0.479   0.352   8.323   9.154
 81        0.496   0.493   8.310   9.299
 82        0.496   0.493   8.310   9.299
 83        0.500   0.510   8.312   9.322
 84        0.500   0.510   8.312   9.322
 85        0.496   0.493   8.310   9.299
 86        0.497   0.494   8.313   9.304
 87        0.500   0.510   8.312   9.322
 88        0.500   0.510   8.312   9.322
 89        0.497   0.494   8.313   9.304
 90        0.500   0.510   8.312   9.322
 91        0.500   0.510   8.312   9.322
 92        0.497   0.494   8.313   9.304
 93        0.500   0.510   8.312   9.322
 94        0.500   0.510   8.312   9.322
 95        0.497   0.494   8.313   9.304
 96        0.479   0.352   8.323   9.154
 97        0.479   0.352   8.323   9.154
 98        0.496   0.493   8.310   9.299
 99        0.496   0.493   8.310   9.299
100        0.479   0.352   8.323   9.154
101        0.479   0.352   8.323   9.154
102        0.496   0.493   8.310   9.299
103        0.496   0.493   8.310   9.299
104        0.479   0.352   8.323   9.154
105        0.479   0.352   8.323   9.154
106        0.496   0.493   8.310   9.299
107        0.496   0.493   8.310   9.299
108        0.479   0.352   8.323   9.154
109        0.479   0.352   8.323   9.154
110        0.496   0.493   8.310   9.299
111        0.500   0.510   8.312   9.322
112        0.500   0.510   8.312   9.322
------------------------------------------------
tot       55.160  51.241 931.2521037.654



 magnetization (x)

# of ion     s       p       d       tot
----------------------------------------
  1       -0.007  -0.025   0.672   0.640
  2       -0.006  -0.024   0.647   0.617
  3       -0.008  -0.025   0.685   0.652
  4       -0.008  -0.025   0.685   0.652
  5       -0.006  -0.024   0.648   0.618
  6       -0.008  -0.025   0.685   0.652
  7       -0.008  -0.025   0.685   0.652
  8       -0.006  -0.024   0.647   0.617
  9       -0.008  -0.025   0.685   0.652
 10       -0.008  -0.025   0.685   0.652
 11       -0.006  -0.024   0.648   0.618
 12       -0.003  -0.019   0.746   0.724
 13       -0.008  -0.025   0.685   0.652
 14       -0.003  -0.019   0.746   0.724
 15       -0.007  -0.025   0.672   0.640
 16       -0.003  -0.019   0.746   0.725
 17       -0.003  -0.019   0.746   0.725
 18       -0.007  -0.025   0.672   0.640
 19       -0.007  -0.025   0.672   0.640
 20       -0.003  -0.019   0.746   0.724
 21       -0.003  -0.019   0.746   0.724
 22       -0.007  -0.025   0.672   0.640
 23       -0.007  -0.025   0.672   0.640
 24       -0.003  -0.019   0.746   0.725
 25       -0.003  -0.019   0.746   0.725
 26       -0.007  -0.025   0.672   0.640
 27       -0.007  -0.025   0.672   0.640
 28       -0.008  -0.025   0.685   0.652
 29       -0.007  -0.025   0.672   0.640
 30       -0.006  -0.024   0.647   0.617
 31       -0.008  -0.025   0.685   0.652
 32       -0.008  -0.025   0.685   0.652
 33       -0.006  -0.024   0.648   0.617
 34       -0.008  -0.025   0.685   0.652
 35       -0.008  -0.025   0.685   0.652
 36       -0.006  -0.024   0.647   0.617
 37       -0.008  -0.025   0.685   0.652
 38       -0.008  -0.025   0.685   0.652
 39       -0.006  -0.024   0.648   0.617
 40       -0.003  -0.019   0.746   0.725
 41       -0.007  -0.025   0.672   0.640
 42       -0.003  -0.019   0.746   0.725
 43       -0.007  -0.025   0.672   0.640
 44       -0.003  -0.019   0.746   0.724
 45       -0.003  -0.019   0.746   0.724
 46       -0.007  -0.025   0.672   0.640
 47       -0.007  -0.025   0.672   0.640
 48       -0.003  -0.019   0.746   0.725
 49       -0.003  -0.019   0.746   0.725
 50       -0.007  -0.025   0.672   0.640
 51       -0.007  -0.025   0.672   0.640
 52       -0.003  -0.019   0.746   0.724
 53       -0.003  -0.019   0.746   0.724
 54       -0.007  -0.025   0.672   0.640
 55       -0.007  -0.025   0.672   0.640
 56       -0.008  -0.025   0.685   0.652
 57       -0.008  -0.025   0.685   0.652
 58       -0.008  -0.025   0.685   0.652
 59       -0.008  -0.025   0.685   0.652
 60       -0.006  -0.024   0.647   0.617
 61       -0.008  -0.025   0.685   0.652
 62       -0.008  -0.025   0.685   0.652
 63       -0.006  -0.024   0.648   0.617
 64       -0.008  -0.025   0.685   0.652
 65       -0.008  -0.025   0.685   0.652
 66       -0.006  -0.024   0.647   0.617
 67       -0.003  -0.019   0.746   0.725
 68       -0.003  -0.019   0.746   0.725
 69       -0.006  -0.024   0.648   0.618
 70       -0.007  -0.025   0.672   0.640
 71       -0.003  -0.019   0.746   0.724
 72       -0.003  -0.019   0.746   0.724
 73       -0.007  -0.025   0.672   0.640
 74       -0.007  -0.025   0.672   0.640
 75       -0.003  -0.019   0.746   0.725
 76       -0.003  -0.019   0.746   0.725
 77       -0.007  -0.025   0.672   0.640
 78       -0.007  -0.025   0.672   0.640
 79       -0.003  -0.019   0.746   0.724
 80       -0.003  -0.019   0.746   0.724
 81       -0.007  -0.025   0.672   0.640
 82       -0.007  -0.025   0.672   0.640
 83       -0.008  -0.025   0.685   0.652
 84       -0.008  -0.025   0.685   0.652
 85       -0.007  -0.025   0.672   0.640
 86       -0.006  -0.024   0.648   0.617
 87       -0.008  -0.025   0.685   0.652
 88       -0.008  -0.025   0.685   0.652
 89       -0.006  -0.024   0.647   0.617
 90       -0.008  -0.025   0.685   0.652
 91       -0.008  -0.025   0.685   0.652
 92       -0.006  -0.024   0.648   0.617
 93       -0.008  -0.025   0.685   0.652
 94       -0.008  -0.025   0.685   0.652
 95       -0.006  -0.024   0.647   0.617
 96       -0.003  -0.019   0.746   0.724
 97       -0.003  -0.019   0.746   0.724
 98       -0.007  -0.025   0.672   0.640
 99       -0.007  -0.025   0.672   0.640
100       -0.003  -0.019   0.746   0.725
101       -0.003  -0.019   0.746   0.725
102       -0.007  -0.025   0.672   0.640
103       -0.007  -0.025   0.672   0.640
104       -0.003  -0.019   0.746   0.724
105       -0.003  -0.019   0.746   0.724
106       -0.007  -0.025   0.672   0.640
107       -0.007  -0.025   0.672   0.640
108       -0.003  -0.019   0.746   0.725
109       -0.003  -0.019   0.746   0.725
110       -0.007  -0.025   0.672   0.640
111       -0.008  -0.025   0.685   0.652
112       -0.008  -0.025   0.685   0.652
------------------------------------------------
tot       -0.654  -2.577  77.651  74.420

 BZINTS: Fermi energy: -1.371476;********** electrons
         Band energy:***********;  BLOECHL correction: -0.102786

 total amount of memory used by VASP on root node   747229. kBytes
========================================================================

   base      :      30000. kBytes
   nonl-proj :     239279. kBytes
   fftplans  :      12300. kBytes
   grid      :     143849. kBytes
   one-center:       3483. kBytes
   wavefun   :     318318. kBytes

  
  
 General timing and accounting informations for this job:
 ========================================================
  
                  Total CPU time used (sec):    47297.621
                            User time (sec):    46733.816
                          System time (sec):      563.804
                         Elapsed time (sec):    49797.454
  
                   Maximum memory used (kb):     1125844.
                   Average memory used (kb):           0.
  
                          Minor page faults:    259742775
                          Major page faults:           14
                 Voluntary context switches:      7506825
