<?xml version="1.0" encoding="ISO-8859-1"?>
<modeling>
 <generator>
  <i name="program" type="string">vasp </i>
  <i name="version" type="string">5.4.1  </i>
  <i name="subversion" type="string">05Feb16 (build Oct 09 2017 12:57:40) complex                          parallel </i>
  <i name="platform" type="string">INTEL16_impi_mkl </i>
  <i name="date" type="string">2017 11 05 </i>
  <i name="time" type="string">15:29:05 </i>
 </generator>
 <incar>
  <i type="int" name="ISTART">     0</i>
  <i type="string" name="PREC">normal</i>
  <i type="int" name="ISPIN">     2</i>
  <i type="int" name="NELM">   100</i>
  <i type="int" name="IBRION">     2</i>
  <i name="EDIFF">      0.00010000</i>
  <i name="EDIFFG">     -0.01000000</i>
  <i type="int" name="NSW">   100</i>
  <i type="int" name="ISIF">     0</i>
  <i name="ENCUT">    400.00000000</i>
  <i type="int" name="ISMEAR">     1</i>
  <i name="SIGMA">      0.20000000</i>
  <i type="logical" name="LWAVE"> T  </i>
  <i type="logical" name="LCHARG"> T  </i>
  <i type="logical" name="LVTOT"> T  </i>
  <i type="logical" name="LORBIT"> F  </i>
  <i type="logical" name="LASPH"> T  </i>
  <v type="int" name="KPOINT_BSE">    -1     0     0     0</v>
  <i type="int" name="NELM">   100</i>
  <i type="string" name="GGA"> ML</i>
  <i type="logical" name="LUSE_VDW"> T  </i>
  <i name="Zab_VDW">     -1.88670000</i>
  <i name="AGGAC">      0.00000000</i>
  <i type="logical" name="LASPH"> T  </i>
 </incar>
 <kpoints>
  <generation param="Monkhorst-Pack">
   <v type="int" name="divisions">       6        6        1 </v>
   <v name="usershift">      0.00000000       0.00000000       0.00000000 </v>
   <v name="genvec1">      0.16666667       0.00000000       0.00000000 </v>
   <v name="genvec2">      0.00000000       0.16666667       0.00000000 </v>
   <v name="genvec3">      0.00000000       0.00000000       1.00000000 </v>
   <v name="shift">      0.50000000       0.50000000       0.00000000 </v>
  </generation>
  <varray name="kpointlist" >
   <v>       0.08333333       0.08333333       0.00000000 </v>
   <v>       0.25000000       0.08333333       0.00000000 </v>
   <v>       0.41666667       0.08333333       0.00000000 </v>
   <v>       0.25000000       0.25000000       0.00000000 </v>
   <v>       0.41666667       0.25000000       0.00000000 </v>
   <v>       0.41666667       0.41666667       0.00000000 </v>
  </varray>
  <varray name="weights" >
   <v>       0.11111111 </v>
   <v>       0.22222222 </v>
   <v>       0.22222222 </v>
   <v>       0.11111111 </v>
   <v>       0.22222222 </v>
   <v>       0.11111111 </v>
  </varray>
 </kpoints>
 <parameters>
  <separator name="general" >
   <i type="string" name="SYSTEM">unknown system</i>
   <i type="logical" name="LCOMPAT"> F  </i>
  </separator>
  <separator name="electronic" >
   <i type="string" name="PREC">normal</i>
   <i name="ENMAX">    400.00000000</i>
   <i name="ENAUG">    544.56500000</i>
   <i name="EDIFF">      0.00010000</i>
   <i type="int" name="IALGO">    38</i>
   <i type="int" name="IWAVPR">    11</i>
   <i type="int" name="NBANDS">   184</i>
   <i name="NELECT">    280.00000000</i>
   <i type="int" name="TURBO">     0</i>
   <i type="int" name="IRESTART">     0</i>
   <i type="int" name="NREBOOT">     0</i>
   <i type="int" name="NMIN">     0</i>
   <i name="EREF">      0.00000000</i>
   <separator name="electronic smearing" >
    <i type="int" name="ISMEAR">     1</i>
    <i name="SIGMA">      0.20000000</i>
    <i name="KSPACING">      0.50000000</i>
    <i type="logical" name="KGAMMA"> T  </i>
   </separator>
   <separator name="electronic projectors" >
    <i type="logical" name="LREAL"> F  </i>
    <v name="ROPT">      0.00000000</v>
    <i type="int" name="LMAXPAW">  -100</i>
    <i type="int" name="LMAXMIX">     2</i>
    <i type="logical" name="NLSPLINE"> F  </i>
   </separator>
   <separator name="electronic startup" >
    <i type="int" name="ISTART">     0</i>
    <i type="int" name="ICHARG">     2</i>
    <i type="int" name="INIWAV">     1</i>
   </separator>
   <separator name="electronic spin" >
    <i type="int" name="ISPIN">     2</i>
    <i type="logical" name="LNONCOLLINEAR"> F  </i>
    <v name="MAGMOM">      1.00000000      1.00000000      1.00000000      1.00000000      1.00000000      1.00000000      1.00000000      1.00000000      1.00000000      1.00000000      1.00000000      1.00000000      1.00000000      1.00000000      1.00000000      1.00000000      1.00000000      1.00000000      1.00000000      1.00000000
      1.00000000      1.00000000      1.00000000      1.00000000      1.00000000      1.00000000      1.00000000      1.00000000</v>
    <i name="NUPDOWN">     -1.00000000</i>
    <i type="logical" name="LSORBIT"> F  </i>
    <v name="SAXIS">      0.00000000      0.00000000      1.00000000</v>
    <i type="logical" name="LSPIRAL"> F  </i>
    <v name="QSPIRAL">      0.00000000      0.00000000      0.00000000</v>
    <i type="logical" name="LZEROZ"> F  </i>
   </separator>
   <separator name="electronic exchange-correlation" >
    <i type="logical" name="LASPH"> T  </i>
    <i type="logical" name="LMETAGGA"> F  </i>
   </separator>
   <separator name="electronic convergence" >
    <i type="int" name="NELM">   100</i>
    <i type="int" name="NELMDL">    -5</i>
    <i type="int" name="NELMIN">     2</i>
    <i name="ENINI">    400.00000000</i>
    <separator name="electronic convergence detail" >
     <i type="logical" name="LDIAG"> T  </i>
     <i type="logical" name="LSUBROT"> F  </i>
     <i name="WEIMIN">      0.00100000</i>
     <i name="EBREAK">      0.00000014</i>
     <i name="DEPER">      0.30000000</i>
     <i type="int" name="NRMM">     4</i>
     <i name="TIME">      0.40000000</i>
    </separator>
   </separator>
   <separator name="electronic mixer" >
    <i name="AMIX">      0.40000000</i>
    <i name="BMIX">      1.00000000</i>
    <i name="AMIN">      0.10000000</i>
    <i name="AMIX_MAG">      1.60000000</i>
    <i name="BMIX_MAG">      1.00000000</i>
    <separator name="electronic mixer details" >
     <i type="int" name="IMIX">     4</i>
     <i type="logical" name="MIXFIRST"> F  </i>
     <i type="int" name="MAXMIX">   -45</i>
     <i name="WC">    100.00000000</i>
     <i type="int" name="INIMIX">     1</i>
     <i type="int" name="MIXPRE">     1</i>
     <i type="int" name="MREMOVE">     5</i>
    </separator>
   </separator>
   <separator name="electronic dipolcorrection" >
    <i type="logical" name="LDIPOL"> F  </i>
    <i type="logical" name="LMONO"> F  </i>
    <i type="int" name="IDIPOL">     0</i>
    <i name="EPSILON">      1.00000000</i>
    <v name="DIPOL">   -100.00000000   -100.00000000   -100.00000000</v>
    <i name="EFIELD">      0.00000000</i>
   </separator>
  </separator>
  <separator name="grids" >
   <i type="int" name="NGX">    24</i>
   <i type="int" name="NGY">    24</i>
   <i type="int" name="NGZ">   180</i>
   <i type="int" name="NGXF">    48</i>
   <i type="int" name="NGYF">    48</i>
   <i type="int" name="NGZF">   360</i>
   <i type="logical" name="ADDGRID"> F  </i>
  </separator>
  <separator name="ionic" >
   <i type="int" name="NSW">   100</i>
   <i type="int" name="IBRION">     2</i>
   <i type="int" name="ISIF">     0</i>
   <i name="PSTRESS">      0.00000000</i>
   <i name="EDIFFG">     -0.01000000</i>
   <i type="int" name="NFREE">     1</i>
   <i name="POTIM">      0.50000000</i>
   <i name="SMASS">     -3.00000000</i>
   <i name="SCALEE">      1.00000000</i>
  </separator>
  <separator name="ionic md" >
   <i name="TEBEG">      0.00010000</i>
   <i name="TEEND">      0.00010000</i>
   <i type="int" name="NBLOCK">     1</i>
   <i type="int" name="KBLOCK">   100</i>
   <i type="int" name="NPACO">   256</i>
   <i name="APACO">     16.00000000</i>
  </separator>
  <separator name="symmetry" >
   <i type="int" name="ISYM">     2</i>
   <i name="SYMPREC">      0.00001000</i>
  </separator>
  <separator name="dos" >
   <i type="logical" name="LORBIT"> F  </i>
   <v name="RWIGS">     -1.00000000</v>
   <i type="int" name="NEDOS">   301</i>
   <i name="EMIN">     10.00000000</i>
   <i name="EMAX">    -10.00000000</i>
   <i name="EFERMI">      0.00000000</i>
  </separator>
  <separator name="writing" >
   <i type="int" name="NWRITE">     2</i>
   <i type="logical" name="LWAVE"> T  </i>
   <i type="logical" name="LCHARG"> T  </i>
   <i type="logical" name="LPARD"> F  </i>
   <i type="logical" name="LVTOT"> T  </i>
   <i type="logical" name="LVHAR"> F  </i>
   <i type="logical" name="LELF"> F  </i>
   <i type="logical" name="LOPTICS"> F  </i>
   <v name="STM">      0.00000000      0.00000000      0.00000000      0.00000000      0.00000000      0.00000000      0.00000000</v>
  </separator>
  <separator name="performance" >
   <i type="int" name="NPAR">     4</i>
   <i type="int" name="NSIM">     4</i>
   <i type="int" name="NBLK">    -1</i>
   <i type="logical" name="LPLANE"> T  </i>
   <i type="logical" name="LSCALAPACK"> T  </i>
   <i type="logical" name="LSCAAWARE"> F  </i>
   <i type="logical" name="LSCALU"> F  </i>
   <i type="logical" name="LASYNC"> F  </i>
   <i type="logical" name="LORBITALREAL"> F  </i>
  </separator>
  <separator name="miscellaneous" >
   <i type="int" name="IDIOT">     3</i>
   <i type="logical" name="LMUSIC"> F  </i>
   <v name="POMASS">     58.69000000</v>
   <v name="DARWINR">      0.00000000</v>
   <v name="DARWINV">      1.00000000</v>
   <i type="logical" name="LCORR"> T  </i>
  </separator>
  <i type="logical" name="GGA_COMPAT"> T  </i>
  <i type="logical" name="LBERRY"> F  </i>
  <i type="int" name="ICORELEVEL">     0</i>
  <i type="logical" name="LDAU"> F  </i>
  <i type="int" name="I_CONSTRAINED_M">     0</i>
  <separator name="electronic exchange-correlation" >
   <i type="string" name="GGA">ML</i>
   <i type="int" name="VOSKOWN">     0</i>
   <i type="logical" name="LHFCALC"> F  </i>
   <i type="string" name="PRECFOCK"></i>
   <i type="logical" name="LSYMGRAD"> F  </i>
   <i type="logical" name="LHFONE"> F  </i>
   <i type="logical" name="LRHFCALC"> F  </i>
   <i type="logical" name="LTHOMAS"> F  </i>
   <i type="logical" name="LMODELHF"> F  </i>
   <i name="ENCUT4O">     -1.00000000</i>
   <i type="int" name="EXXOEP">     0</i>
   <i type="int" name="FOURORBIT">     0</i>
   <i name="AEXX">      0.00000000</i>
   <i name="HFALPHA">      0.00000000</i>
   <i name="MCALPHA">      0.00000000</i>
   <i name="ALDAX">      1.00000000</i>
   <i name="AGGAX">      1.00000000</i>
   <i name="ALDAC">      1.00000000</i>
   <i name="AGGAC">      0.00000000</i>
   <i type="int" name="NKREDX">     1</i>
   <i type="int" name="NKREDY">     1</i>
   <i type="int" name="NKREDZ">     1</i>
   <i type="logical" name="SHIFTRED"> F  </i>
   <i type="logical" name="ODDONLY"> F  </i>
   <i type="logical" name="EVENONLY"> F  </i>
   <i type="int" name="LMAXFOCK">     0</i>
   <i type="int" name="NMAXFOCKAE">     0</i>
   <i type="logical" name="LFOCKAEDFT"> F  </i>
   <i name="HFSCREEN">      0.00000000</i>
   <i name="HFSCREENC">      0.00000000</i>
   <i type="int" name="NBANDSGWLOW">     0</i>
  </separator>
  <separator name="vdW DFT" >
   <i type="logical" name="LUSE_VDW"> T  </i>
   <i name="Zab_VDW">     -1.88670000</i>
   <i name="PARAM1">      0.12340000</i>
   <i name="PARAM2">      1.00000000</i>
   <i name="PARAM3">      0.00000000</i>
  </separator>
  <separator name="model GW" >
   <i type="int" name="MODEL_GW">     0</i>
   <i name="MODEL_EPS0">     18.08005685</i>
   <i name="MODEL_ALPHA">      1.00000000</i>
  </separator>
  <separator name="linear response parameters" >
   <i type="logical" name="LEPSILON"> F  </i>
   <i type="logical" name="LRPA"> F  </i>
   <i type="logical" name="LNABLA"> F  </i>
   <i type="logical" name="LVEL"> F  </i>
   <i type="int" name="KINTER">     0</i>
   <i name="CSHIFT">      0.10000000</i>
   <i name="OMEGAMAX">     -1.00000000</i>
   <i name="DEG_THRESHOLD">      0.00200000</i>
  </separator>
  <separator name="orbital magnetization" >
   <i type="logical" name="NUCIND"> F  </i>
   <v name="MAGPOS">      0.00000000      0.00000000      0.00000000</v>
   <i type="logical" name="LNICSALL"> T  </i>
   <i type="logical" name="ORBITALMAG"> F  </i>
   <i type="logical" name="LMAGBLOCH"> F  </i>
   <i type="logical" name="LCHIMAG"> F  </i>
   <i type="logical" name="LGAUGE"> T  </i>
   <i type="int" name="MAGATOM">     0</i>
   <v name="MAGDIPOL">      0.00000000      0.00000000      0.00000000</v>
   <v name="AVECCONST">      0.00000000      0.00000000      0.00000000</v>
  </separator>
  <separator name="response functions" >
   <i type="logical" name="LADDER"> F  </i>
   <i type="logical" name="LFXC"> F  </i>
   <i type="logical" name="LHARTREE"> T  </i>
   <i type="int" name="IBSE">     0</i>
   <v type="int" name="KPOINT">    -1     0     0     0</v>
   <i type="logical" name="LTCTE"> F  </i>
   <i type="logical" name="LTETE"> F  </i>
   <i type="logical" name="LTRIPLET"> F  </i>
   <i type="logical" name="LFXCEPS"> F  </i>
   <i type="logical" name="LFXHEG"> F  </i>
   <i type="int" name="NATURALO">     0</i>
   <i type="logical" name="L2ORDER"> F  </i>
   <i type="logical" name="LUSEW"> F  </i>
   <i name="ENCUTGW">     -2.00000000</i>
   <i name="ENCUTGWSOFT">     -2.00000000</i>
   <i name="ENCUTLF">     -1.00000000</i>
   <i type="int" name="LMAXMP2">    -1</i>
   <i name="SCISSOR">      0.00000000</i>
   <i type="int" name="NOMEGA">     0</i>
   <i type="int" name="NOMEGAR">     0</i>
   <i type="int" name="NBANDSGW">    -1</i>
   <i type="int" name="NBANDSO">    -1</i>
   <i type="int" name="NBANDSV">    -1</i>
   <i type="int" name="NELM">   100</i>
   <i type="int" name="NELMHF">     1</i>
   <i type="int" name="DIM">     3</i>
   <i type="int" name="ANTIRES">     0</i>
   <i name="OMEGAMAX">    -30.00000000</i>
   <i name="OMEGAMIN">    -30.00000000</i>
   <i name="OMEGATL">   -200.00000000</i>
   <i type="int" name="OMEGAGRID">     0</i>
   <i name="CSHIFT">     -0.10000000</i>
   <i type="logical" name="SELFENERGY"> F  </i>
   <i type="logical" name="LSPECTRAL"> F  </i>
   <i type="logical" name="LSPECTRALGW"> F  </i>
   <i type="logical" name="LSINGLES"> F  </i>
   <i type="logical" name="LFERMIGW"> F  </i>
   <i type="logical" name="ODDONLYGW"> F  </i>
   <i type="logical" name="EVENONLYGW"> F  </i>
   <i type="int" name="NKREDLFX">     1</i>
   <i type="int" name="NKREDLFY">     1</i>
   <i type="int" name="NKREDLFZ">     1</i>
   <i type="int" name="MAXMEM">  1800</i>
   <i type="int" name="TELESCOPE">     0</i>
   <i type="int" name="TAUPAR">     1</i>
   <i type="int" name="OMEGAPAR">    -1</i>
   <i name="LAMBDA">      1.00000000</i>
  </separator>
  <separator name="External order field" >
   <i name="OFIELD_KAPPA">      0.00000000</i>
   <v name="OFIELD_K">      0.00000000      0.00000000      0.00000000</v>
   <i name="OFIELD_Q6_NEAR">      0.00000000</i>
   <i name="OFIELD_Q6_FAR">      0.00000000</i>
   <i name="OFIELD_A">      0.00000000</i>
  </separator>
 </parameters>
 <atominfo>
  <atoms>      28 </atoms>
  <types>       1 </types>
  <array name="atoms" >
   <dimension dim="1">ion</dimension>
   <field type="string">element</field>
   <field type="int">atomtype</field>
   <set>
    <rc><c>Ni</c><c>   1</c></rc>
    <rc><c>Ni</c><c>   1</c></rc>
    <rc><c>Ni</c><c>   1</c></rc>
    <rc><c>Ni</c><c>   1</c></rc>
    <rc><c>Ni</c><c>   1</c></rc>
    <rc><c>Ni</c><c>   1</c></rc>
    <rc><c>Ni</c><c>   1</c></rc>
    <rc><c>Ni</c><c>   1</c></rc>
    <rc><c>Ni</c><c>   1</c></rc>
    <rc><c>Ni</c><c>   1</c></rc>
    <rc><c>Ni</c><c>   1</c></rc>
    <rc><c>Ni</c><c>   1</c></rc>
    <rc><c>Ni</c><c>   1</c></rc>
    <rc><c>Ni</c><c>   1</c></rc>
    <rc><c>Ni</c><c>   1</c></rc>
    <rc><c>Ni</c><c>   1</c></rc>
    <rc><c>Ni</c><c>   1</c></rc>
    <rc><c>Ni</c><c>   1</c></rc>
    <rc><c>Ni</c><c>   1</c></rc>
    <rc><c>Ni</c><c>   1</c></rc>
    <rc><c>Ni</c><c>   1</c></rc>
    <rc><c>Ni</c><c>   1</c></rc>
    <rc><c>Ni</c><c>   1</c></rc>
    <rc><c>Ni</c><c>   1</c></rc>
    <rc><c>Ni</c><c>   1</c></rc>
    <rc><c>Ni</c><c>   1</c></rc>
    <rc><c>Ni</c><c>   1</c></rc>
    <rc><c>Ni</c><c>   1</c></rc>
   </set>
  </array>
  <array name="atomtypes" >
   <dimension dim="1">type</dimension>
   <field type="int">atomspertype</field>
   <field type="string">element</field>
   <field>mass</field>
   <field>valence</field>
   <field type="string">pseudopotential</field>
   <set>
    <rc><c>  28</c><c>Ni</c><c>     58.69000000</c><c>     10.00000000</c><c>  PAW_PBE Ni 02Aug2007                  </c></rc>
   </set>
  </array>
 </atominfo>
 <structure name="initialpos" >
  <crystal>
   <varray name="basis" >
    <v>       4.94589787       0.00000000       0.00000000 </v>
    <v>       0.00000000       4.94589787       0.00000000 </v>
    <v>       0.00000000       0.00000000      34.49183377 </v>
   </varray>
   <i name="volume">    843.73598618 </i>
   <varray name="rec_basis" >
    <v>       0.20218776       0.00000000       0.00000000 </v>
    <v>       0.00000000       0.20218776       0.00000000 </v>
    <v>       0.00000000       0.00000000       0.02899237 </v>
   </varray>
  </crystal>
  <varray name="positions" >
   <v>       0.00000000       0.00000000       0.34790844 </v>
   <v>       0.50000000       0.00000000       0.34790844 </v>
   <v>       0.00000000       0.50000000       0.34790844 </v>
   <v>       0.50000000       0.50000000       0.34790844 </v>
   <v>       0.25000000       0.25000000       0.39860563 </v>
   <v>       0.75000000       0.25000000       0.39860563 </v>
   <v>       0.25000000       0.75000000       0.39860563 </v>
   <v>       0.75000000       0.75000000       0.39860563 </v>
   <v>       0.00000000       0.00000000       0.44930281 </v>
   <v>       0.50000000       0.00000000       0.44930281 </v>
   <v>       0.00000000       0.50000000       0.44930281 </v>
   <v>       0.50000000       0.50000000       0.44930281 </v>
   <v>       0.25000000       0.25000000       0.50000000 </v>
   <v>       0.75000000       0.25000000       0.50000000 </v>
   <v>       0.25000000       0.75000000       0.50000000 </v>
   <v>       0.75000000       0.75000000       0.50000000 </v>
   <v>       0.00000000       0.00000000       0.55069719 </v>
   <v>       0.50000000       0.00000000       0.55069719 </v>
   <v>       0.00000000       0.50000000       0.55069719 </v>
   <v>       0.50000000       0.50000000       0.55069719 </v>
   <v>       0.25000000       0.25000000       0.60139437 </v>
   <v>       0.75000000       0.25000000       0.60139437 </v>
   <v>       0.25000000       0.75000000       0.60139437 </v>
   <v>       0.75000000       0.75000000       0.60139437 </v>
   <v>       0.00000000       0.00000000       0.65209156 </v>
   <v>       0.50000000       0.00000000       0.65209156 </v>
   <v>       0.00000000       0.50000000       0.65209156 </v>
   <v>       0.50000000       0.50000000       0.65209156 </v>
  </varray>
 </structure>
 <calculation>
  <scstep>
   <time name="dav">    2.40    2.43</time>
   <time name="total">    3.32    3.38</time>
   <energy>
    <i name="alphaZ">    473.88674940 </i>
    <i name="ewald"> 324438.19031162 </i>
    <i name="hartreedc">-353803.23094781 </i>
    <i name="XCdc">    832.23160396 </i>
    <i name="pawpsdc">  27015.43006089 </i>
    <i name="pawaedc"> -28882.80872951 </i>
    <i name="eentropy">     -0.01222603 </i>
    <i name="bandstr">   1645.19556229 </i>
    <i name="atom">  30363.04050840 </i>
    <i name="e_fr_energy">   2081.92289320 </i>
    <i name="e_wo_entrp">   2081.93511923 </i>
    <i name="e_0_energy">   2081.92696854 </i>
   </energy>
  </scstep>
  <scstep>
   <time name="dav">    2.39    2.41</time>
   <time name="total">    2.39    2.41</time>
   <energy>
    <i name="e_fr_energy">    116.77870309 </i>
    <i name="e_wo_entrp">    116.78213000 </i>
    <i name="e_0_energy">    116.77984539 </i>
   </energy>
  </scstep>
  <scstep>
   <time name="dav">    2.47    2.48</time>
   <time name="total">    2.48    2.49</time>
   <energy>
    <i name="e_fr_energy">    -67.60976784 </i>
    <i name="e_wo_entrp">    -67.63482760 </i>
    <i name="e_0_energy">    -67.61812109 </i>
   </energy>
  </scstep>
  <scstep>
   <time name="dav">    2.48    2.49</time>
   <time name="total">    2.48    2.49</time>
   <energy>
    <i name="e_fr_energy">    -73.75819050 </i>
    <i name="e_wo_entrp">    -73.77937160 </i>
    <i name="e_0_energy">    -73.76525087 </i>
   </energy>
  </scstep>
  <scstep>
   <time name="dav">    2.85    2.85</time>
   <time name="total">    2.96    2.96</time>
   <energy>
    <i name="e_fr_energy">    -73.88933115 </i>
    <i name="e_wo_entrp">    -73.91046063 </i>
    <i name="e_0_energy">    -73.89637431 </i>
   </energy>
  </scstep>
  <scstep>
   <time name="dav">    2.62    2.62</time>
   <time name="total">    3.30    3.31</time>
   <energy>
    <i name="e_fr_energy">    -89.51904305 </i>
    <i name="e_wo_entrp">    -89.44209935 </i>
    <i name="e_0_energy">    -89.49339515 </i>
   </energy>
  </scstep>
  <scstep>
   <time name="dav">    2.56    2.57</time>
   <time name="total">    3.24    3.25</time>
   <energy>
    <i name="e_fr_energy">   -101.87109024 </i>
    <i name="e_wo_entrp">   -101.88167462 </i>
    <i name="e_0_energy">   -101.87461836 </i>
   </energy>
  </scstep>
  <scstep>
   <time name="dav">    3.23    3.23</time>
   <time name="total">    3.90    3.91</time>
   <energy>
    <i name="e_fr_energy">    -64.08304521 </i>
    <i name="e_wo_entrp">    -64.11645061 </i>
    <i name="e_0_energy">    -64.09418034 </i>
   </energy>
  </scstep>
  <scstep>
   <time name="dav">    2.75    2.75</time>
   <time name="total">    3.42    3.43</time>
   <energy>
    <i name="e_fr_energy">    -53.65684864 </i>
    <i name="e_wo_entrp">    -53.71886705 </i>
    <i name="e_0_energy">    -53.67752144 </i>
   </energy>
  </scstep>
  <scstep>
   <time name="dav">    2.81    2.82</time>
   <time name="total">    3.50    3.51</time>
   <energy>
    <i name="e_fr_energy">    -60.39396294 </i>
    <i name="e_wo_entrp">    -60.39326129 </i>
    <i name="e_0_energy">    -60.39372906 </i>
   </energy>
  </scstep>
  <scstep>
   <time name="dav">    2.53    2.53</time>
   <time name="total">    3.21    3.22</time>
   <energy>
    <i name="e_fr_energy">    -51.72171286 </i>
    <i name="e_wo_entrp">    -51.74373269 </i>
    <i name="e_0_energy">    -51.72905281 </i>
   </energy>
  </scstep>
  <scstep>
   <time name="dav">    2.65    2.66</time>
   <time name="total">    3.34    3.35</time>
   <energy>
    <i name="e_fr_energy">    -52.11492926 </i>
    <i name="e_wo_entrp">    -52.17992152 </i>
    <i name="e_0_energy">    -52.13659334 </i>
   </energy>
  </scstep>
  <scstep>
   <time name="dav">    2.52    2.52</time>
   <time name="total">    3.19    3.20</time>
   <energy>
    <i name="e_fr_energy">    -52.26830502 </i>
    <i name="e_wo_entrp">    -52.30781759 </i>
    <i name="e_0_energy">    -52.28147588 </i>
   </energy>
  </scstep>
  <scstep>
   <time name="dav">    3.30    3.31</time>
   <time name="total">    3.98    3.99</time>
   <energy>
    <i name="e_fr_energy">    -52.95376070 </i>
    <i name="e_wo_entrp">    -52.92136112 </i>
    <i name="e_0_energy">    -52.94296084 </i>
   </energy>
  </scstep>
  <scstep>
   <time name="dav">    2.87    2.88</time>
   <time name="total">    3.56    3.57</time>
   <energy>
    <i name="e_fr_energy">    -53.57592336 </i>
    <i name="e_wo_entrp">    -53.53976380 </i>
    <i name="e_0_energy">    -53.56387017 </i>
   </energy>
  </scstep>
  <scstep>
   <time name="dav">    2.92    2.93</time>
   <time name="total">    3.60    3.62</time>
   <energy>
    <i name="e_fr_energy">    -52.86017451 </i>
    <i name="e_wo_entrp">    -52.82123953 </i>
    <i name="e_0_energy">    -52.84719618 </i>
   </energy>
  </scstep>
  <scstep>
   <time name="dav">    3.40    3.40</time>
   <time name="total">    4.11    4.12</time>
   <energy>
    <i name="e_fr_energy">    -52.56138185 </i>
    <i name="e_wo_entrp">    -52.51516227 </i>
    <i name="e_0_energy">    -52.54597532 </i>
   </energy>
  </scstep>
  <scstep>
   <time name="dav">    2.70    2.70</time>
   <time name="total">    3.38    3.39</time>
   <energy>
    <i name="e_fr_energy">    -52.57813927 </i>
    <i name="e_wo_entrp">    -52.53911272 </i>
    <i name="e_0_energy">    -52.56513042 </i>
   </energy>
  </scstep>
  <scstep>
   <time name="dav">    3.24    3.24</time>
   <time name="total">    3.92    3.93</time>
   <energy>
    <i name="e_fr_energy">    -52.64072475 </i>
    <i name="e_wo_entrp">    -52.60275866 </i>
    <i name="e_0_energy">    -52.62806939 </i>
   </energy>
  </scstep>
  <scstep>
   <time name="dav">    2.70    2.71</time>
   <time name="total">    3.38    3.40</time>
   <energy>
    <i name="e_fr_energy">    -52.77360244 </i>
    <i name="e_wo_entrp">    -52.73395501 </i>
    <i name="e_0_energy">    -52.76038663 </i>
   </energy>
  </scstep>
  <scstep>
   <time name="dav">    2.59    2.59</time>
   <time name="total">    3.27    3.28</time>
   <energy>
    <i name="e_fr_energy">    -52.91141972 </i>
    <i name="e_wo_entrp">    -52.88549392 </i>
    <i name="e_0_energy">    -52.90277779 </i>
   </energy>
  </scstep>
  <scstep>
   <time name="dav">    2.70    2.70</time>
   <time name="total">    3.38    3.39</time>
   <energy>
    <i name="e_fr_energy">    -52.96057528 </i>
    <i name="e_wo_entrp">    -52.95225067 </i>
    <i name="e_0_energy">    -52.95780041 </i>
   </energy>
  </scstep>
  <scstep>
   <time name="dav">    2.46    2.47</time>
   <time name="total">    3.14    3.15</time>
   <energy>
    <i name="e_fr_energy">    -52.90156035 </i>
    <i name="e_wo_entrp">    -52.88755310 </i>
    <i name="e_0_energy">    -52.89689127 </i>
   </energy>
  </scstep>
  <scstep>
   <time name="dav">    3.10    3.10</time>
   <time name="total">    3.78    3.79</time>
   <energy>
    <i name="e_fr_energy">    -52.87907231 </i>
    <i name="e_wo_entrp">    -52.86438613 </i>
    <i name="e_0_energy">    -52.87417691 </i>
   </energy>
  </scstep>
  <scstep>
   <time name="dav">    3.00    3.00</time>
   <time name="total">    3.68    3.69</time>
   <energy>
    <i name="e_fr_energy">    -52.89349931 </i>
    <i name="e_wo_entrp">    -52.88171412 </i>
    <i name="e_0_energy">    -52.88957091 </i>
   </energy>
  </scstep>
  <scstep>
   <time name="dav">    2.77    2.77</time>
   <time name="total">    3.45    3.46</time>
   <energy>
    <i name="e_fr_energy">    -52.90829467 </i>
    <i name="e_wo_entrp">    -52.89513091 </i>
    <i name="e_0_energy">    -52.90390675 </i>
   </energy>
  </scstep>
  <scstep>
   <time name="dav">    2.65    2.66</time>
   <time name="total">    3.34    3.35</time>
   <energy>
    <i name="e_fr_energy">    -52.91638233 </i>
    <i name="e_wo_entrp">    -52.90972867 </i>
    <i name="e_0_energy">    -52.91416444 </i>
   </energy>
  </scstep>
  <scstep>
   <time name="dav">    2.44    2.44</time>
   <time name="total">    3.12    3.13</time>
   <energy>
    <i name="e_fr_energy">    -52.91996672 </i>
    <i name="e_wo_entrp">    -52.91056401 </i>
    <i name="e_0_energy">    -52.91683248 </i>
   </energy>
  </scstep>
  <scstep>
   <time name="dav">    2.44    2.44</time>
   <time name="total">    3.12    3.13</time>
   <energy>
    <i name="e_fr_energy">    -52.92016315 </i>
    <i name="e_wo_entrp">    -52.91055291 </i>
    <i name="e_0_energy">    -52.91695974 </i>
   </energy>
  </scstep>
  <scstep>
   <time name="dav">    2.60    2.60</time>
   <time name="total">    3.28    3.28</time>
   <energy>
    <i name="e_fr_energy">    -52.92180672 </i>
    <i name="e_wo_entrp">    -52.91054324 </i>
    <i name="e_0_energy">    -52.91805223 </i>
   </energy>
  </scstep>
  <scstep>
   <time name="dav">    2.36    2.37</time>
   <time name="total">    3.05    3.06</time>
   <energy>
    <i name="e_fr_energy">    -52.92065275 </i>
    <i name="e_wo_entrp">    -52.90889140 </i>
    <i name="e_0_energy">    -52.91673230 </i>
   </energy>
  </scstep>
  <scstep>
   <time name="dav">    2.06    2.06</time>
   <time name="total">    2.74    2.75</time>
   <energy>
    <i name="e_fr_energy">    -52.91965729 </i>
    <i name="e_wo_entrp">    -52.90726333 </i>
    <i name="e_0_energy">    -52.91552597 </i>
   </energy>
  </scstep>
  <scstep>
   <time name="dav">    1.82    1.82</time>
   <time name="total">    2.52    2.52</time>
   <energy>
    <i name="e_fr_energy">    -52.91934563 </i>
    <i name="e_wo_entrp">    -52.90686403 </i>
    <i name="e_0_energy">    -52.91518510 </i>
   </energy>
  </scstep>
  <scstep>
   <time name="dav">    1.72    1.72</time>
   <time name="total">    2.30    2.31</time>
   <energy>
    <i name="alphaZ">    473.88674940 </i>
    <i name="ewald"> 324438.19031162 </i>
    <i name="hartreedc">-353629.81588201 </i>
    <i name="XCdc">    806.92595653 </i>
    <i name="pawpsdc">  31514.84227937 </i>
    <i name="pawaedc"> -33435.33951047 </i>
    <i name="eentropy">     -0.01226986 </i>
    <i name="bandstr">   -584.63749362 </i>
    <i name="atom">  30363.04050840 </i>
    <i name="e_fr_energy">    -52.91935065 </i>
    <i name="e_wo_entrp">    -52.90708079 </i>
    <i name="e_0_energy">    -52.91526070 </i>
   </energy>
  </scstep>
  <structure>
   <crystal>
    <varray name="basis" >
     <v>       4.94589787       0.00000000       0.00000000 </v>
     <v>       0.00000000       4.94589787       0.00000000 </v>
     <v>       0.00000000       0.00000000      34.49183377 </v>
    </varray>
    <i name="volume">    843.73598618 </i>
    <varray name="rec_basis" >
     <v>       0.20218776       0.00000000       0.00000000 </v>
     <v>       0.00000000       0.20218776       0.00000000 </v>
     <v>       0.00000000       0.00000000       0.02899237 </v>
    </varray>
   </crystal>
   <varray name="positions" >
    <v>       0.00000000       0.00000000       0.34790844 </v>
    <v>       0.50000000       0.00000000       0.34790844 </v>
    <v>       0.00000000       0.50000000       0.34790844 </v>
    <v>       0.50000000       0.50000000       0.34790844 </v>
    <v>       0.25000000       0.25000000       0.39860563 </v>
    <v>       0.75000000       0.25000000       0.39860563 </v>
    <v>       0.25000000       0.75000000       0.39860563 </v>
    <v>       0.75000000       0.75000000       0.39860563 </v>
    <v>       0.00000000       0.00000000       0.44930281 </v>
    <v>       0.50000000       0.00000000       0.44930281 </v>
    <v>       0.00000000       0.50000000       0.44930281 </v>
    <v>       0.50000000       0.50000000       0.44930281 </v>
    <v>       0.25000000       0.25000000       0.50000000 </v>
    <v>       0.75000000       0.25000000       0.50000000 </v>
    <v>       0.25000000       0.75000000       0.50000000 </v>
    <v>       0.75000000       0.75000000       0.50000000 </v>
    <v>       0.00000000       0.00000000       0.55069719 </v>
    <v>       0.50000000       0.00000000       0.55069719 </v>
    <v>       0.00000000       0.50000000       0.55069719 </v>
    <v>       0.50000000       0.50000000       0.55069719 </v>
    <v>       0.25000000       0.25000000       0.60139437 </v>
    <v>       0.75000000       0.25000000       0.60139437 </v>
    <v>       0.25000000       0.75000000       0.60139437 </v>
    <v>       0.75000000       0.75000000       0.60139437 </v>
    <v>       0.00000000       0.00000000       0.65209156 </v>
    <v>       0.50000000       0.00000000       0.65209156 </v>
    <v>       0.00000000       0.50000000       0.65209156 </v>
    <v>       0.50000000       0.50000000       0.65209156 </v>
   </varray>
  </structure>
  <varray name="forces" >
   <v>      -0.00000000      -0.00000000      -0.37935047 </v>
   <v>      -0.00000000       0.00000000      -0.37935047 </v>
   <v>      -0.00000000       0.00000000      -0.37935047 </v>
   <v>      -0.00000000       0.00000000      -0.37935047 </v>
   <v>      -0.00000000       0.00000000      -0.33717190 </v>
   <v>      -0.00000000      -0.00000000      -0.33717190 </v>
   <v>       0.00000000      -0.00000000      -0.33717190 </v>
   <v>       0.00000000      -0.00000000      -0.33717190 </v>
   <v>       0.00000000      -0.00000000       0.00444996 </v>
   <v>      -0.00000000       0.00000000       0.00444996 </v>
   <v>       0.00000000       0.00000000       0.00444996 </v>
   <v>      -0.00000000       0.00000000       0.00444996 </v>
   <v>       0.00000000      -0.00000000       0.00000000 </v>
   <v>      -0.00000000      -0.00000000       0.00000000 </v>
   <v>       0.00000000       0.00000000       0.00000000 </v>
   <v>       0.00000000       0.00000000       0.00000000 </v>
   <v>      -0.00000000       0.00000000      -0.00444996 </v>
   <v>       0.00000000       0.00000000      -0.00444996 </v>
   <v>      -0.00000000       0.00000000      -0.00444996 </v>
   <v>       0.00000000       0.00000000      -0.00444996 </v>
   <v>       0.00000000      -0.00000000       0.33717190 </v>
   <v>       0.00000000       0.00000000       0.33717190 </v>
   <v>      -0.00000000      -0.00000000       0.33717190 </v>
   <v>      -0.00000000      -0.00000000       0.33717190 </v>
   <v>       0.00000000      -0.00000000       0.37935047 </v>
   <v>       0.00000000       0.00000000       0.37935047 </v>
   <v>       0.00000000       0.00000000       0.37935047 </v>
   <v>      -0.00000000      -0.00000000       0.37935047 </v>
  </varray>
  <energy>
   <i name="e_fr_energy">    -52.91935065 </i>
   <i name="e_wo_entrp">    -52.91526070 </i>
   <i name="e_0_energy">     -0.01226986 </i>
  </energy>
  <time name="totalsc">  116.34  116.79</time>
 </calculation>
 <calculation>
  <scstep>
   <time name="dav">    2.38    2.38</time>
   <time name="total">    3.06    3.07</time>
   <energy>
    <i name="alphaZ">    473.88674940 </i>
    <i name="ewald"> 323115.85877344 </i>
    <i name="hartreedc">-352310.57764602 </i>
    <i name="XCdc">    806.69042506 </i>
    <i name="pawpsdc">  31515.73572216 </i>
    <i name="pawaedc"> -33436.27083685 </i>
    <i name="eentropy">     -0.01096332 </i>
    <i name="bandstr">   -581.34301056 </i>
    <i name="atom">  30363.04050840 </i>
    <i name="e_fr_energy">    -52.99027828 </i>
    <i name="e_wo_entrp">    -52.97931497 </i>
    <i name="e_0_energy">    -52.98662384 </i>
   </energy>
  </scstep>
  <scstep>
   <time name="dav">    3.20    3.21</time>
   <time name="total">    3.88    3.90</time>
   <energy>
    <i name="e_fr_energy">    -53.60998291 </i>
    <i name="e_wo_entrp">    -53.54664724 </i>
    <i name="e_0_energy">    -53.58887102 </i>
   </energy>
  </scstep>
  <scstep>
   <time name="dav">    2.50    2.52</time>
   <time name="total">    3.18    3.20</time>
   <energy>
    <i name="e_fr_energy">    -53.01242929 </i>
    <i name="e_wo_entrp">    -52.99298747 </i>
    <i name="e_0_energy">    -53.00594868 </i>
   </energy>
  </scstep>
  <scstep>
   <time name="dav">    2.85    2.86</time>
   <time name="total">    3.53    3.55</time>
   <energy>
    <i name="e_fr_energy">    -53.02577443 </i>
    <i name="e_wo_entrp">    -53.01770921 </i>
    <i name="e_0_energy">    -53.02308602 </i>
   </energy>
  </scstep>
  <scstep>
   <time name="dav">    2.49    2.50</time>
   <time name="total">    3.17    3.18</time>
   <energy>
    <i name="e_fr_energy">    -53.01234118 </i>
    <i name="e_wo_entrp">    -52.99644976 </i>
    <i name="e_0_energy">    -53.00704404 </i>
   </energy>
  </scstep>
  <scstep>
   <time name="dav">    2.50    2.51</time>
   <time name="total">    3.18    3.20</time>
   <energy>
    <i name="e_fr_energy">    -53.01308253 </i>
    <i name="e_wo_entrp">    -52.99644654 </i>
    <i name="e_0_energy">    -53.00753720 </i>
   </energy>
  </scstep>
  <scstep>
   <time name="dav">    2.40    2.41</time>
   <time name="total">    3.08    3.10</time>
   <energy>
    <i name="e_fr_energy">    -53.01390383 </i>
    <i name="e_wo_entrp">    -52.99588394 </i>
    <i name="e_0_energy">    -53.00789720 </i>
   </energy>
  </scstep>
  <scstep>
   <time name="dav">    2.39    2.40</time>
   <time name="total">    3.07    3.08</time>
   <energy>
    <i name="e_fr_energy">    -53.01324707 </i>
    <i name="e_wo_entrp">    -52.99679473 </i>
    <i name="e_0_energy">    -53.00776296 </i>
   </energy>
  </scstep>
  <scstep>
   <time name="dav">    2.28    2.30</time>
   <time name="total">    2.86    2.88</time>
   <energy>
    <i name="alphaZ">    473.88674940 </i>
    <i name="ewald"> 323115.85877344 </i>
    <i name="hartreedc">-352310.29957197 </i>
    <i name="XCdc">    806.72719545 </i>
    <i name="pawpsdc">  31473.10295988 </i>
    <i name="pawaedc"> -33392.99499806 </i>
    <i name="eentropy">     -0.01534988 </i>
    <i name="bandstr">   -582.31954152 </i>
    <i name="atom">  30363.04050840 </i>
    <i name="e_fr_energy">    -53.01327486 </i>
    <i name="e_wo_entrp">    -52.99792498 </i>
    <i name="e_0_energy">    -53.00815823 </i>
   </energy>
  </scstep>
  <structure>
   <crystal>
    <varray name="basis" >
     <v>       4.94589787       0.00000000       0.00000000 </v>
     <v>       0.00000000       4.94589787       0.00000000 </v>
     <v>       0.00000000       0.00000000      34.49183377 </v>
    </varray>
    <i name="volume">    843.73598618 </i>
    <varray name="rec_basis" >
     <v>       0.20218776       0.00000000       0.00000000 </v>
     <v>       0.00000000       0.20218776       0.00000000 </v>
     <v>       0.00000000       0.00000000       0.02899237 </v>
    </varray>
   </crystal>
   <varray name="positions" >
    <v>      -0.00000000      -0.00000000       0.34737785 </v>
    <v>       0.50000000       0.00000000       0.34737785 </v>
    <v>      -0.00000000       0.50000000       0.34737785 </v>
    <v>       0.50000000       0.50000000       0.34737785 </v>
    <v>       0.25000000       0.25000000       0.39813403 </v>
    <v>       0.75000000       0.25000000       0.39813403 </v>
    <v>       0.25000000       0.75000000       0.39813403 </v>
    <v>       0.75000000       0.75000000       0.39813403 </v>
    <v>       0.00000000      -0.00000000       0.44930904 </v>
    <v>       0.50000000       0.00000000       0.44930904 </v>
    <v>       0.00000000       0.50000000       0.44930904 </v>
    <v>       0.50000000       0.50000000       0.44930904 </v>
    <v>       0.25000000       0.25000000       0.50000000 </v>
    <v>       0.75000000       0.25000000       0.50000000 </v>
    <v>       0.25000000       0.75000000       0.50000000 </v>
    <v>       0.75000000       0.75000000       0.50000000 </v>
    <v>      -0.00000000       0.00000000       0.55069096 </v>
    <v>       0.50000000       0.00000000       0.55069096 </v>
    <v>      -0.00000000       0.50000000       0.55069096 </v>
    <v>       0.50000000       0.50000000       0.55069096 </v>
    <v>       0.25000000       0.25000000       0.60186597 </v>
    <v>       0.75000000       0.25000000       0.60186597 </v>
    <v>       0.25000000       0.75000000       0.60186597 </v>
    <v>       0.75000000       0.75000000       0.60186597 </v>
    <v>       0.00000000      -0.00000000       0.65262215 </v>
    <v>       0.50000000       0.00000000       0.65262215 </v>
    <v>       0.00000000       0.50000000       0.65262215 </v>
    <v>       0.50000000       0.50000000       0.65262215 </v>
   </varray>
  </structure>
  <varray name="forces" >
   <v>      -0.00000000       0.00000000      -0.36061468 </v>
   <v>      -0.00000000      -0.00000000      -0.36061468 </v>
   <v>       0.00000000      -0.00000000      -0.36061468 </v>
   <v>       0.00000000      -0.00000000      -0.36061468 </v>
   <v>      -0.00000000      -0.00000000      -0.27540418 </v>
   <v>      -0.00000000      -0.00000000      -0.27540418 </v>
   <v>       0.00000000      -0.00000000      -0.27540418 </v>
   <v>      -0.00000000       0.00000000      -0.27540418 </v>
   <v>       0.00000000       0.00000000      -0.09099435 </v>
   <v>      -0.00000000       0.00000000      -0.09099435 </v>
   <v>       0.00000000       0.00000000      -0.09099435 </v>
   <v>      -0.00000000       0.00000000      -0.09099435 </v>
   <v>       0.00000000      -0.00000000      -0.00000000 </v>
   <v>       0.00000000       0.00000000      -0.00000000 </v>
   <v>       0.00000000       0.00000000      -0.00000000 </v>
   <v>      -0.00000000       0.00000000      -0.00000000 </v>
   <v>      -0.00000000       0.00000000       0.09099435 </v>
   <v>       0.00000000      -0.00000000       0.09099435 </v>
   <v>      -0.00000000       0.00000000       0.09099435 </v>
   <v>       0.00000000       0.00000000       0.09099435 </v>
   <v>       0.00000000      -0.00000000       0.27540418 </v>
   <v>       0.00000000      -0.00000000       0.27540418 </v>
   <v>      -0.00000000       0.00000000       0.27540418 </v>
   <v>      -0.00000000      -0.00000000       0.27540418 </v>
   <v>       0.00000000       0.00000000       0.36061468 </v>
   <v>       0.00000000      -0.00000000       0.36061468 </v>
   <v>      -0.00000000       0.00000000       0.36061468 </v>
   <v>      -0.00000000       0.00000000       0.36061468 </v>
  </varray>
  <energy>
   <i name="e_fr_energy">    -53.01327486 </i>
   <i name="e_wo_entrp">    -53.00815823 </i>
   <i name="e_0_energy">     -0.01534988 </i>
  </energy>
  <time name="totalsc">   32.74   32.91</time>
 </calculation>
 <calculation>
  <scstep>
   <time name="dav">    2.36    2.37</time>
   <time name="total">    3.04    3.06</time>
   <energy>
    <i name="alphaZ">    473.88674940 </i>
    <i name="ewald"> 319164.50671057 </i>
    <i name="hartreedc">-348367.96263147 </i>
    <i name="XCdc">    806.11390061 </i>
    <i name="pawpsdc">  31473.06420571 </i>
    <i name="pawaedc"> -33392.94443588 </i>
    <i name="eentropy">     -0.01300131 </i>
    <i name="bandstr">   -572.68176367 </i>
    <i name="atom">  30363.04050840 </i>
    <i name="e_fr_energy">    -52.98975764 </i>
    <i name="e_wo_entrp">    -52.97675632 </i>
    <i name="e_0_energy">    -52.98542386 </i>
   </energy>
  </scstep>
  <scstep>
   <time name="dav">    3.52    3.53</time>
   <time name="total">    4.20    4.22</time>
   <energy>
    <i name="e_fr_energy">    -57.63907433 </i>
    <i name="e_wo_entrp">    -57.68264866 </i>
    <i name="e_0_energy">    -57.65359910 </i>
   </energy>
  </scstep>
  <scstep>
   <time name="dav">    2.54    2.56</time>
   <time name="total">    3.22    3.24</time>
   <energy>
    <i name="e_fr_energy">    -53.32202946 </i>
    <i name="e_wo_entrp">    -53.29581227 </i>
    <i name="e_0_energy">    -53.31329040 </i>
   </energy>
  </scstep>
  <scstep>
   <time name="dav">    2.94    2.95</time>
   <time name="total">    3.62    3.63</time>
   <energy>
    <i name="e_fr_energy">    -53.36427842 </i>
    <i name="e_wo_entrp">    -53.36829797 </i>
    <i name="e_0_energy">    -53.36561827 </i>
   </energy>
  </scstep>
  <scstep>
   <time name="dav">    2.57    2.59</time>
   <time name="total">    3.26    3.28</time>
   <energy>
    <i name="e_fr_energy">    -53.20952813 </i>
    <i name="e_wo_entrp">    -53.18378599 </i>
    <i name="e_0_energy">    -53.20094741 </i>
   </energy>
  </scstep>
  <scstep>
   <time name="dav">    2.42    2.43</time>
   <time name="total">    3.10    3.11</time>
   <energy>
    <i name="e_fr_energy">    -53.21852460 </i>
    <i name="e_wo_entrp">    -53.18910764 </i>
    <i name="e_0_energy">    -53.20871895 </i>
   </energy>
  </scstep>
  <scstep>
   <time name="dav">    2.70    2.71</time>
   <time name="total">    3.38    3.40</time>
   <energy>
    <i name="e_fr_energy">    -53.23022826 </i>
    <i name="e_wo_entrp">    -53.19850988 </i>
    <i name="e_0_energy">    -53.21965547 </i>
   </energy>
  </scstep>
  <scstep>
   <time name="dav">    2.50    2.52</time>
   <time name="total">    3.18    3.20</time>
   <energy>
    <i name="e_fr_energy">    -53.22748574 </i>
    <i name="e_wo_entrp">    -53.19640961 </i>
    <i name="e_0_energy">    -53.21712703 </i>
   </energy>
  </scstep>
  <scstep>
   <time name="dav">    2.43    2.44</time>
   <time name="total">    3.11    3.12</time>
   <energy>
    <i name="e_fr_energy">    -53.21900487 </i>
    <i name="e_wo_entrp">    -53.19253052 </i>
    <i name="e_0_energy">    -53.21018009 </i>
   </energy>
  </scstep>
  <scstep>
   <time name="dav">    3.55    3.57</time>
   <time name="total">    4.24    4.26</time>
   <energy>
    <i name="e_fr_energy">    -53.21911283 </i>
    <i name="e_wo_entrp">    -53.19492685 </i>
    <i name="e_0_energy">    -53.21105084 </i>
   </energy>
  </scstep>
  <scstep>
   <time name="dav">    2.65    2.66</time>
   <time name="total">    3.32    3.35</time>
   <energy>
    <i name="e_fr_energy">    -53.22065979 </i>
    <i name="e_wo_entrp">    -53.19569247 </i>
    <i name="e_0_energy">    -53.21233735 </i>
   </energy>
  </scstep>
  <scstep>
   <time name="dav">    2.30    2.31</time>
   <time name="total">    2.98    3.00</time>
   <energy>
    <i name="e_fr_energy">    -53.22105883 </i>
    <i name="e_wo_entrp">    -53.19540353 </i>
    <i name="e_0_energy">    -53.21250706 </i>
   </energy>
  </scstep>
  <scstep>
   <time name="dav">    1.88    1.89</time>
   <time name="total">    2.56    2.57</time>
   <energy>
    <i name="e_fr_energy">    -53.22140758 </i>
    <i name="e_wo_entrp">    -53.19558403 </i>
    <i name="e_0_energy">    -53.21279973 </i>
   </energy>
  </scstep>
  <scstep>
   <time name="dav">    1.72    1.73</time>
   <time name="total">    2.40    2.42</time>
   <energy>
    <i name="e_fr_energy">    -53.22118430 </i>
    <i name="e_wo_entrp">    -53.19513517 </i>
    <i name="e_0_energy">    -53.21250126 </i>
   </energy>
  </scstep>
  <scstep>
   <time name="dav">    1.78    1.79</time>
   <time name="total">    2.46    2.48</time>
   <energy>
    <i name="e_fr_energy">    -53.22175289 </i>
    <i name="e_wo_entrp">    -53.19581715 </i>
    <i name="e_0_energy">    -53.21310764 </i>
   </energy>
  </scstep>
  <scstep>
   <time name="dav">    1.71    1.72</time>
   <time name="total">    2.39    2.40</time>
   <energy>
    <i name="e_fr_energy">    -53.22149954 </i>
    <i name="e_wo_entrp">    -53.19559128 </i>
    <i name="e_0_energy">    -53.21286346 </i>
   </energy>
  </scstep>
  <scstep>
   <time name="dav">    1.75    1.76</time>
   <time name="total">    2.33    2.34</time>
   <energy>
    <i name="alphaZ">    473.88674940 </i>
    <i name="ewald"> 319164.50671057 </i>
    <i name="hartreedc">-348366.53158137 </i>
    <i name="XCdc">    806.14914674 </i>
    <i name="pawpsdc">  31354.09509713 </i>
    <i name="pawaedc"> -33272.13774705 </i>
    <i name="eentropy">     -0.02588447 </i>
    <i name="bandstr">   -576.20440702 </i>
    <i name="atom">  30363.04050840 </i>
    <i name="e_fr_energy">    -53.22140767 </i>
    <i name="e_wo_entrp">    -53.19552321 </i>
    <i name="e_0_energy">    -53.21277952 </i>
   </energy>
  </scstep>
  <structure>
   <crystal>
    <varray name="basis" >
     <v>       4.94589787       0.00000000       0.00000000 </v>
     <v>       0.00000000       4.94589787       0.00000000 </v>
     <v>       0.00000000       0.00000000      34.49183377 </v>
    </varray>
    <i name="volume">    843.73598618 </i>
    <varray name="rec_basis" >
     <v>       0.20218776       0.00000000       0.00000000 </v>
     <v>       0.00000000       0.20218776       0.00000000 </v>
     <v>       0.00000000       0.00000000       0.02899237 </v>
    </varray>
   </crystal>
   <varray name="positions" >
    <v>      -0.00000000      -0.00000000       0.34578609 </v>
    <v>       0.50000000       0.00000000       0.34578609 </v>
    <v>      -0.00000000       0.50000000       0.34578609 </v>
    <v>       0.50000000       0.50000000       0.34578609 </v>
    <v>       0.25000000       0.25000000       0.39671926 </v>
    <v>       0.75000000       0.25000000       0.39671926 </v>
    <v>       0.25000000       0.75000000       0.39671926 </v>
    <v>       0.75000000       0.75000000       0.39671926 </v>
    <v>       0.00000000      -0.00000000       0.44932771 </v>
    <v>       0.50000000       0.00000000       0.44932771 </v>
    <v>       0.00000000       0.50000000       0.44932771 </v>
    <v>       0.50000000       0.50000000       0.44932771 </v>
    <v>       0.25000000       0.25000000       0.50000000 </v>
    <v>       0.75000000       0.25000000       0.50000000 </v>
    <v>       0.25000000       0.75000000       0.50000000 </v>
    <v>       0.75000000       0.75000000       0.50000000 </v>
    <v>      -0.00000000       0.00000000       0.55067229 </v>
    <v>       0.50000000       0.00000000       0.55067229 </v>
    <v>      -0.00000000       0.50000000       0.55067229 </v>
    <v>       0.50000000       0.50000000       0.55067229 </v>
    <v>       0.25000000       0.25000000       0.60328074 </v>
    <v>       0.75000000       0.25000000       0.60328074 </v>
    <v>       0.25000000       0.75000000       0.60328074 </v>
    <v>       0.75000000       0.75000000       0.60328074 </v>
    <v>       0.00000000      -0.00000000       0.65421391 </v>
    <v>       0.50000000       0.00000000       0.65421391 </v>
    <v>       0.00000000       0.50000000       0.65421391 </v>
    <v>       0.50000000       0.50000000       0.65421391 </v>
   </varray>
  </structure>
  <varray name="forces" >
   <v>      -0.00000000      -0.00000000      -0.31971021 </v>
   <v>      -0.00000000      -0.00000000      -0.31971021 </v>
   <v>       0.00000000      -0.00000000      -0.31971021 </v>
   <v>      -0.00000000      -0.00000000      -0.31971021 </v>
   <v>       0.00000000       0.00000000      -0.04634267 </v>
   <v>       0.00000000       0.00000000      -0.04634267 </v>
   <v>       0.00000000       0.00000000      -0.04634267 </v>
   <v>      -0.00000000       0.00000000      -0.04634267 </v>
   <v>       0.00000000       0.00000000      -0.32720583 </v>
   <v>       0.00000000      -0.00000000      -0.32720583 </v>
   <v>       0.00000000      -0.00000000      -0.32720583 </v>
   <v>       0.00000000       0.00000000      -0.32720583 </v>
   <v>       0.00000000       0.00000000      -0.00000000 </v>
   <v>      -0.00000000       0.00000000      -0.00000000 </v>
   <v>       0.00000000      -0.00000000      -0.00000000 </v>
   <v>      -0.00000000       0.00000000      -0.00000000 </v>
   <v>      -0.00000000      -0.00000000       0.32720583 </v>
   <v>      -0.00000000       0.00000000       0.32720583 </v>
   <v>      -0.00000000      -0.00000000       0.32720583 </v>
   <v>       0.00000000       0.00000000       0.32720583 </v>
   <v>      -0.00000000       0.00000000       0.04634267 </v>
   <v>      -0.00000000       0.00000000       0.04634267 </v>
   <v>       0.00000000       0.00000000       0.04634267 </v>
   <v>      -0.00000000       0.00000000       0.04634267 </v>
   <v>       0.00000000      -0.00000000       0.31971021 </v>
   <v>       0.00000000       0.00000000       0.31971021 </v>
   <v>       0.00000000      -0.00000000       0.31971021 </v>
   <v>      -0.00000000      -0.00000000       0.31971021 </v>
  </varray>
  <energy>
   <i name="e_fr_energy">    -53.22140767 </i>
   <i name="e_wo_entrp">    -53.21277952 </i>
   <i name="e_0_energy">     -0.02588447 </i>
  </energy>
  <time name="totalsc">   56.50   56.84</time>
 </calculation>
 <calculation>
  <scstep>
   <time name="dav">    2.36    2.37</time>
   <time name="total">    3.04    3.06</time>
   <energy>
    <i name="alphaZ">    473.88674940 </i>
    <i name="ewald"> 311333.02119570 </i>
    <i name="hartreedc">-340553.50454509 </i>
    <i name="XCdc">    805.26276803 </i>
    <i name="pawpsdc">  31353.88996770 </i>
    <i name="pawaedc"> -33271.94409959 </i>
    <i name="eentropy">     -0.02027988 </i>
    <i name="bandstr">   -555.88478685 </i>
    <i name="atom">  30363.04050840 </i>
    <i name="e_fr_energy">    -52.25252218 </i>
    <i name="e_wo_entrp">    -52.23224230 </i>
    <i name="e_0_energy">    -52.24576222 </i>
   </energy>
  </scstep>
  <scstep>
   <time name="dav">    3.44    3.45</time>
   <time name="total">    4.12    4.14</time>
   <energy>
    <i name="e_fr_energy">    -62.55318345 </i>
    <i name="e_wo_entrp">    -62.55107273 </i>
    <i name="e_0_energy">    -62.55247987 </i>
   </energy>
  </scstep>
  <scstep>
   <time name="dav">    2.56    2.58</time>
   <time name="total">    3.24    3.26</time>
   <energy>
    <i name="e_fr_energy">    -55.19947283 </i>
    <i name="e_wo_entrp">    -55.16506685 </i>
    <i name="e_0_energy">    -55.18800417 </i>
   </energy>
  </scstep>
  <scstep>
   <time name="dav">    2.90    2.91</time>
   <time name="total">    3.58    3.59</time>
   <energy>
    <i name="e_fr_energy">    -53.90480374 </i>
    <i name="e_wo_entrp">    -53.92269662 </i>
    <i name="e_0_energy">    -53.91076803 </i>
   </energy>
  </scstep>
  <scstep>
   <time name="dav">    2.61    2.62</time>
   <time name="total">    3.29    3.31</time>
   <energy>
    <i name="e_fr_energy">    -53.29191460 </i>
    <i name="e_wo_entrp">    -53.24737221 </i>
    <i name="e_0_energy">    -53.27706714 </i>
   </energy>
  </scstep>
  <scstep>
   <time name="dav">    2.44    2.46</time>
   <time name="total">    3.13    3.15</time>
   <energy>
    <i name="e_fr_energy">    -53.34820882 </i>
    <i name="e_wo_entrp">    -53.30283350 </i>
    <i name="e_0_energy">    -53.33308371 </i>
   </energy>
  </scstep>
  <scstep>
   <time name="dav">    2.57    2.58</time>
   <time name="total">    3.25    3.26</time>
   <energy>
    <i name="e_fr_energy">    -53.40395638 </i>
    <i name="e_wo_entrp">    -53.34970451 </i>
    <i name="e_0_energy">    -53.38587242 </i>
   </energy>
  </scstep>
  <scstep>
   <time name="dav">    2.49    2.50</time>
   <time name="total">    3.16    3.19</time>
   <energy>
    <i name="e_fr_energy">    -53.40559933 </i>
    <i name="e_wo_entrp">    -53.35776166 </i>
    <i name="e_0_energy">    -53.38965344 </i>
   </energy>
  </scstep>
  <scstep>
   <time name="dav">    2.98    3.00</time>
   <time name="total">    3.66    3.68</time>
   <energy>
    <i name="e_fr_energy">    -53.38063614 </i>
    <i name="e_wo_entrp">    -53.33933517 </i>
    <i name="e_0_energy">    -53.36686915 </i>
   </energy>
  </scstep>
  <scstep>
   <time name="dav">    3.12    3.14</time>
   <time name="total">    3.81    3.83</time>
   <energy>
    <i name="e_fr_energy">    -53.33467194 </i>
    <i name="e_wo_entrp">    -53.30000724 </i>
    <i name="e_0_energy">    -53.32311704 </i>
   </energy>
  </scstep>
  <scstep>
   <time name="dav">    2.92    2.94</time>
   <time name="total">    3.60    3.63</time>
   <energy>
    <i name="e_fr_energy">    -53.34972790 </i>
    <i name="e_wo_entrp">    -53.31516992 </i>
    <i name="e_0_energy">    -53.33820857 </i>
   </energy>
  </scstep>
  <scstep>
   <time name="dav">    2.68    2.68</time>
   <time name="total">    3.36    3.37</time>
   <energy>
    <i name="e_fr_energy">    -53.34360960 </i>
    <i name="e_wo_entrp">    -53.30568881 </i>
    <i name="e_0_energy">    -53.33096934 </i>
   </energy>
  </scstep>
  <scstep>
   <time name="dav">    3.29    3.30</time>
   <time name="total">    3.96    3.99</time>
   <energy>
    <i name="e_fr_energy">    -53.34307509 </i>
    <i name="e_wo_entrp">    -53.30271088 </i>
    <i name="e_0_energy">    -53.32962035 </i>
   </energy>
  </scstep>
  <scstep>
   <time name="dav">    2.39    2.40</time>
   <time name="total">    3.07    3.09</time>
   <energy>
    <i name="e_fr_energy">    -53.34432755 </i>
    <i name="e_wo_entrp">    -53.30446237 </i>
    <i name="e_0_energy">    -53.33103916 </i>
   </energy>
  </scstep>
  <scstep>
   <time name="dav">    1.75    1.76</time>
   <time name="total">    2.44    2.45</time>
   <energy>
    <i name="e_fr_energy">    -53.34457686 </i>
    <i name="e_wo_entrp">    -53.30529146 </i>
    <i name="e_0_energy">    -53.33148173 </i>
   </energy>
  </scstep>
  <scstep>
   <time name="dav">    1.87    1.88</time>
   <time name="total">    2.55    2.57</time>
   <energy>
    <i name="e_fr_energy">    -53.34529903 </i>
    <i name="e_wo_entrp">    -53.30582837 </i>
    <i name="e_0_energy">    -53.33214214 </i>
   </energy>
  </scstep>
  <scstep>
   <time name="dav">    1.74    1.74</time>
   <time name="total">    2.42    2.43</time>
   <energy>
    <i name="e_fr_energy">    -53.34516041 </i>
    <i name="e_wo_entrp">    -53.30569439 </i>
    <i name="e_0_energy">    -53.33200507 </i>
   </energy>
  </scstep>
  <scstep>
   <time name="dav">    1.75    1.76</time>
   <time name="total">    2.43    2.45</time>
   <energy>
    <i name="e_fr_energy">    -53.34537120 </i>
    <i name="e_wo_entrp">    -53.30614995 </i>
    <i name="e_0_energy">    -53.33229745 </i>
   </energy>
  </scstep>
  <scstep>
   <time name="dav">    1.85    1.85</time>
   <time name="total">    2.53    2.54</time>
   <energy>
    <i name="e_fr_energy">    -53.34494945 </i>
    <i name="e_wo_entrp">    -53.30580323 </i>
    <i name="e_0_energy">    -53.33190071 </i>
   </energy>
  </scstep>
  <scstep>
   <time name="dav">    1.88    1.89</time>
   <time name="total">    2.56    2.57</time>
   <energy>
    <i name="e_fr_energy">    -53.34437401 </i>
    <i name="e_wo_entrp">    -53.30513116 </i>
    <i name="e_0_energy">    -53.33129306 </i>
   </energy>
  </scstep>
  <scstep>
   <time name="dav">    1.85    1.86</time>
   <time name="total">    2.53    2.55</time>
   <energy>
    <i name="e_fr_energy">    -53.34407228 </i>
    <i name="e_wo_entrp">    -53.30496853 </i>
    <i name="e_0_energy">    -53.33103770 </i>
   </energy>
  </scstep>
  <scstep>
   <time name="dav">    1.72    1.73</time>
   <time name="total">    2.40    2.42</time>
   <energy>
    <i name="e_fr_energy">    -53.34361881 </i>
    <i name="e_wo_entrp">    -53.30444268 </i>
    <i name="e_0_energy">    -53.33056010 </i>
   </energy>
  </scstep>
  <scstep>
   <time name="dav">    1.77    1.78</time>
   <time name="total">    2.45    2.47</time>
   <energy>
    <i name="e_fr_energy">    -53.34310462 </i>
    <i name="e_wo_entrp">    -53.30383470 </i>
    <i name="e_0_energy">    -53.33001465 </i>
   </energy>
  </scstep>
  <scstep>
   <time name="dav">    1.72    1.72</time>
   <time name="total">    2.40    2.43</time>
   <energy>
    <i name="e_fr_energy">    -53.34251813 </i>
    <i name="e_wo_entrp">    -53.30326404 </i>
    <i name="e_0_energy">    -53.32943343 </i>
   </energy>
  </scstep>
  <scstep>
   <time name="dav">    1.72    1.73</time>
   <time name="total">    2.41    2.43</time>
   <energy>
    <i name="e_fr_energy">    -53.34221324 </i>
    <i name="e_wo_entrp">    -53.30299631 </i>
    <i name="e_0_energy">    -53.32914093 </i>
   </energy>
  </scstep>
  <scstep>
   <time name="dav">    1.71    1.73</time>
   <time name="total">    2.40    2.42</time>
   <energy>
    <i name="e_fr_energy">    -53.34186409 </i>
    <i name="e_wo_entrp">    -53.30263647 </i>
    <i name="e_0_energy">    -53.32878822 </i>
   </energy>
  </scstep>
  <scstep>
   <time name="dav">    1.71    1.72</time>
   <time name="total">    2.40    2.41</time>
   <energy>
    <i name="e_fr_energy">    -53.34159032 </i>
    <i name="e_wo_entrp">    -53.30230271 </i>
    <i name="e_0_energy">    -53.32849445 </i>
   </energy>
  </scstep>
  <scstep>
   <time name="dav">    1.71    1.71</time>
   <time name="total">    2.39    2.40</time>
   <energy>
    <i name="e_fr_energy">    -53.34145290 </i>
    <i name="e_wo_entrp">    -53.30217734 </i>
    <i name="e_0_energy">    -53.32836105 </i>
   </energy>
  </scstep>
  <scstep>
   <time name="dav">    1.70    1.71</time>
   <time name="total">    2.38    2.40</time>
   <energy>
    <i name="e_fr_energy">    -53.34126848 </i>
    <i name="e_wo_entrp">    -53.30202594 </i>
    <i name="e_0_energy">    -53.32818763 </i>
   </energy>
  </scstep>
  <scstep>
   <time name="dav">    1.74    1.74</time>
   <time name="total">    2.31    2.32</time>
   <energy>
    <i name="alphaZ">    473.88674940 </i>
    <i name="ewald"> 311333.02119570 </i>
    <i name="hartreedc">-340546.59903172 </i>
    <i name="XCdc">    805.11839330 </i>
    <i name="pawpsdc">  31145.56880715 </i>
    <i name="pawaedc"> -33060.45664362 </i>
    <i name="eentropy">     -0.03923866 </i>
    <i name="bandstr">   -566.88197477 </i>
    <i name="atom">  30363.04050840 </i>
    <i name="e_fr_energy">    -53.34123482 </i>
    <i name="e_wo_entrp">    -53.30199615 </i>
    <i name="e_0_energy">    -53.32815526 </i>
   </energy>
  </scstep>
  <structure>
   <crystal>
    <varray name="basis" >
     <v>       4.94589787       0.00000000       0.00000000 </v>
     <v>       0.00000000       4.94589787       0.00000000 </v>
     <v>       0.00000000       0.00000000      34.49183377 </v>
    </varray>
    <i name="volume">    843.73598618 </i>
    <varray name="rec_basis" >
     <v>       0.20218776       0.00000000       0.00000000 </v>
     <v>       0.00000000       0.20218776       0.00000000 </v>
     <v>       0.00000000       0.00000000       0.02899237 </v>
    </varray>
   </crystal>
   <varray name="positions" >
    <v>      -0.00000000      -0.00000000       0.34260258 </v>
    <v>       0.50000000       0.00000000       0.34260258 </v>
    <v>      -0.00000000       0.50000000       0.34260258 </v>
    <v>       0.50000000       0.50000000       0.34260258 </v>
    <v>       0.25000000       0.25000000       0.39388971 </v>
    <v>       0.75000000       0.25000000       0.39388971 </v>
    <v>       0.25000000       0.75000000       0.39388971 </v>
    <v>       0.75000000       0.75000000       0.39388971 </v>
    <v>       0.00000000      -0.00000000       0.44936505 </v>
    <v>       0.50000000       0.00000000       0.44936505 </v>
    <v>       0.00000000       0.50000000       0.44936505 </v>
    <v>       0.50000000       0.50000000       0.44936505 </v>
    <v>       0.25000000       0.25000000       0.50000000 </v>
    <v>       0.75000000       0.25000000       0.50000000 </v>
    <v>       0.25000000       0.75000000       0.50000000 </v>
    <v>       0.75000000       0.75000000       0.50000000 </v>
    <v>      -0.00000000       0.00000000       0.55063495 </v>
    <v>       0.50000000       0.00000000       0.55063495 </v>
    <v>      -0.00000000       0.50000000       0.55063495 </v>
    <v>       0.50000000       0.50000000       0.55063495 </v>
    <v>       0.25000000       0.25000000       0.60611029 </v>
    <v>       0.75000000       0.25000000       0.60611029 </v>
    <v>       0.25000000       0.75000000       0.60611029 </v>
    <v>       0.75000000       0.75000000       0.60611029 </v>
    <v>       0.00000000      -0.00000000       0.65739742 </v>
    <v>       0.50000000       0.00000000       0.65739742 </v>
    <v>       0.00000000       0.50000000       0.65739742 </v>
    <v>       0.50000000       0.50000000       0.65739742 </v>
   </varray>
  </structure>
  <varray name="forces" >
   <v>       0.00000000       0.00000000      -0.19734265 </v>
   <v>       0.00000000      -0.00000000      -0.19734265 </v>
   <v>       0.00000000       0.00000000      -0.19734265 </v>
   <v>       0.00000000      -0.00000000      -0.19734265 </v>
   <v>       0.00000000      -0.00000000       0.27159905 </v>
   <v>      -0.00000000       0.00000000       0.27159905 </v>
   <v>       0.00000000      -0.00000000       0.27159905 </v>
   <v>      -0.00000000       0.00000000       0.27159905 </v>
   <v>       0.00000000      -0.00000000      -0.73583679 </v>
   <v>       0.00000000      -0.00000000      -0.73583679 </v>
   <v>       0.00000000      -0.00000000      -0.73583679 </v>
   <v>      -0.00000000       0.00000000      -0.73583679 </v>
   <v>       0.00000000      -0.00000000       0.00000000 </v>
   <v>       0.00000000      -0.00000000       0.00000000 </v>
   <v>      -0.00000000       0.00000000       0.00000000 </v>
   <v>      -0.00000000       0.00000000       0.00000000 </v>
   <v>      -0.00000000       0.00000000       0.73583679 </v>
   <v>      -0.00000000       0.00000000       0.73583679 </v>
   <v>      -0.00000000      -0.00000000       0.73583679 </v>
   <v>       0.00000000       0.00000000       0.73583679 </v>
   <v>       0.00000000       0.00000000      -0.27159905 </v>
   <v>      -0.00000000       0.00000000      -0.27159905 </v>
   <v>       0.00000000       0.00000000      -0.27159905 </v>
   <v>       0.00000000      -0.00000000      -0.27159905 </v>
   <v>       0.00000000       0.00000000       0.19734265 </v>
   <v>      -0.00000000      -0.00000000       0.19734265 </v>
   <v>      -0.00000000       0.00000000       0.19734265 </v>
   <v>      -0.00000000       0.00000000       0.19734265 </v>
  </varray>
  <energy>
   <i name="e_fr_energy">    -53.34123482 </i>
   <i name="e_wo_entrp">    -53.32815526 </i>
   <i name="e_0_energy">     -0.03923866 </i>
  </energy>
  <time name="totalsc">   91.04   91.59</time>
 </calculation>
 <calculation>
  <scstep>
   <time name="dav">    2.40    2.42</time>
   <time name="total">    3.09    3.11</time>
   <energy>
    <i name="alphaZ">    473.88674940 </i>
    <i name="ewald"> 310098.43906624 </i>
    <i name="hartreedc">-339314.64528471 </i>
    <i name="XCdc">    804.89095561 </i>
    <i name="pawpsdc">  31145.56339173 </i>
    <i name="pawaedc"> -33060.45089274 </i>
    <i name="eentropy">     -0.03746927 </i>
    <i name="bandstr">   -564.07759593 </i>
    <i name="atom">  30363.04050840 </i>
    <i name="e_fr_energy">    -53.39057126 </i>
    <i name="e_wo_entrp">    -53.35310199 </i>
    <i name="e_0_energy">    -53.37808151 </i>
   </energy>
  </scstep>
  <scstep>
   <time name="dav">    3.28    3.30</time>
   <time name="total">    3.96    3.99</time>
   <energy>
    <i name="e_fr_energy">    -53.94795924 </i>
    <i name="e_wo_entrp">    -53.88146537 </i>
    <i name="e_0_energy">    -53.92579462 </i>
   </energy>
  </scstep>
  <scstep>
   <time name="dav">    2.51    2.52</time>
   <time name="total">    3.19    3.20</time>
   <energy>
    <i name="e_fr_energy">    -53.38562809 </i>
    <i name="e_wo_entrp">    -53.34451227 </i>
    <i name="e_0_energy">    -53.37192282 </i>
   </energy>
  </scstep>
  <scstep>
   <time name="dav">    2.86    2.87</time>
   <time name="total">    3.54    3.55</time>
   <energy>
    <i name="e_fr_energy">    -53.43084890 </i>
    <i name="e_wo_entrp">    -53.39948593 </i>
    <i name="e_0_energy">    -53.42039457 </i>
   </energy>
  </scstep>
  <scstep>
   <time name="dav">    2.46    2.47</time>
   <time name="total">    3.14    3.16</time>
   <energy>
    <i name="e_fr_energy">    -53.40989284 </i>
    <i name="e_wo_entrp">    -53.36888473 </i>
    <i name="e_0_energy">    -53.39622347 </i>
   </energy>
  </scstep>
  <scstep>
   <time name="dav">    2.66    2.67</time>
   <time name="total">    3.34    3.35</time>
   <energy>
    <i name="e_fr_energy">    -53.41010648 </i>
    <i name="e_wo_entrp">    -53.37126368 </i>
    <i name="e_0_energy">    -53.39715888 </i>
   </energy>
  </scstep>
  <scstep>
   <time name="dav">    2.42    2.43</time>
   <time name="total">    3.10    3.12</time>
   <energy>
    <i name="e_fr_energy">    -53.40981294 </i>
    <i name="e_wo_entrp">    -53.36938003 </i>
    <i name="e_0_energy">    -53.39633531 </i>
   </energy>
  </scstep>
  <scstep>
   <time name="dav">    2.45    2.46</time>
   <time name="total">    3.13    3.15</time>
   <energy>
    <i name="e_fr_energy">    -53.40984874 </i>
    <i name="e_wo_entrp">    -53.37002692 </i>
    <i name="e_0_energy">    -53.39657480 </i>
   </energy>
  </scstep>
  <scstep>
   <time name="dav">    1.74    1.74</time>
   <time name="total">    2.31    2.32</time>
   <energy>
    <i name="alphaZ">    473.88674940 </i>
    <i name="ewald"> 310098.43906624 </i>
    <i name="hartreedc">-339314.49644677 </i>
    <i name="XCdc">    804.92966680 </i>
    <i name="pawpsdc">  31104.92886258 </i>
    <i name="pawaedc"> -33019.18144072 </i>
    <i name="eentropy">     -0.03915409 </i>
    <i name="bandstr">   -564.91758510 </i>
    <i name="atom">  30363.04050840 </i>
    <i name="e_fr_energy">    -53.40977327 </i>
    <i name="e_wo_entrp">    -53.37061918 </i>
    <i name="e_0_energy">    -53.39672191 </i>
   </energy>
  </scstep>
  <structure>
   <crystal>
    <varray name="basis" >
     <v>       4.94589787       0.00000000       0.00000000 </v>
     <v>       0.00000000       4.94589787       0.00000000 </v>
     <v>       0.00000000       0.00000000      34.49183377 </v>
    </varray>
    <i name="volume">    843.73598618 </i>
    <varray name="rec_basis" >
     <v>       0.20218776       0.00000000       0.00000000 </v>
     <v>       0.00000000       0.20218776       0.00000000 </v>
     <v>       0.00000000       0.00000000       0.02899237 </v>
    </varray>
   </crystal>
   <varray name="positions" >
    <v>      -0.00000000      -0.00000000       0.34208367 </v>
    <v>       0.50000000       0.00000000       0.34208367 </v>
    <v>      -0.00000000       0.50000000       0.34208367 </v>
    <v>       0.50000000       0.50000000       0.34208367 </v>
    <v>       0.25000000       0.25000000       0.39362340 </v>
    <v>       0.75000000       0.25000000       0.39362340 </v>
    <v>       0.25000000       0.75000000       0.39362340 </v>
    <v>       0.75000000       0.75000000       0.39362340 </v>
    <v>       0.00000000      -0.00000000       0.44904928 </v>
    <v>       0.50000000       0.00000000       0.44904928 </v>
    <v>       0.00000000       0.50000000       0.44904928 </v>
    <v>       0.50000000       0.50000000       0.44904928 </v>
    <v>       0.25000000       0.25000000       0.50000000 </v>
    <v>       0.75000000       0.25000000       0.50000000 </v>
    <v>       0.25000000       0.75000000       0.50000000 </v>
    <v>       0.75000000       0.75000000       0.50000000 </v>
    <v>      -0.00000000       0.00000000       0.55095072 </v>
    <v>       0.50000000       0.00000000       0.55095072 </v>
    <v>      -0.00000000       0.50000000       0.55095072 </v>
    <v>       0.50000000       0.50000000       0.55095072 </v>
    <v>       0.25000000       0.25000000       0.60637660 </v>
    <v>       0.75000000       0.25000000       0.60637660 </v>
    <v>       0.25000000       0.75000000       0.60637660 </v>
    <v>       0.75000000       0.75000000       0.60637660 </v>
    <v>       0.00000000      -0.00000000       0.65791633 </v>
    <v>       0.50000000       0.00000000       0.65791633 </v>
    <v>       0.00000000       0.50000000       0.65791633 </v>
    <v>       0.50000000       0.50000000       0.65791633 </v>
   </varray>
  </structure>
  <varray name="forces" >
   <v>       0.00000000      -0.00000000      -0.16144206 </v>
   <v>       0.00000000       0.00000000      -0.16144206 </v>
   <v>      -0.00000000       0.00000000      -0.16144206 </v>
   <v>       0.00000000       0.00000000      -0.16144206 </v>
   <v>       0.00000000      -0.00000000       0.23425343 </v>
   <v>      -0.00000000      -0.00000000       0.23425343 </v>
   <v>      -0.00000000       0.00000000       0.23425343 </v>
   <v>       0.00000000       0.00000000       0.23425343 </v>
   <v>      -0.00000000      -0.00000000      -0.67786895 </v>
   <v>      -0.00000000      -0.00000000      -0.67786895 </v>
   <v>      -0.00000000      -0.00000000      -0.67786895 </v>
   <v>      -0.00000000      -0.00000000      -0.67786895 </v>
   <v>      -0.00000000       0.00000000      -0.00000000 </v>
   <v>       0.00000000       0.00000000      -0.00000000 </v>
   <v>      -0.00000000      -0.00000000      -0.00000000 </v>
   <v>       0.00000000      -0.00000000      -0.00000000 </v>
   <v>       0.00000000      -0.00000000       0.67786895 </v>
   <v>       0.00000000      -0.00000000       0.67786895 </v>
   <v>       0.00000000       0.00000000       0.67786895 </v>
   <v>       0.00000000       0.00000000       0.67786895 </v>
   <v>       0.00000000       0.00000000      -0.23425343 </v>
   <v>      -0.00000000      -0.00000000      -0.23425343 </v>
   <v>      -0.00000000       0.00000000      -0.23425343 </v>
   <v>       0.00000000      -0.00000000      -0.23425343 </v>
   <v>      -0.00000000      -0.00000000       0.16144206 </v>
   <v>      -0.00000000       0.00000000       0.16144206 </v>
   <v>       0.00000000      -0.00000000       0.16144206 </v>
   <v>       0.00000000       0.00000000       0.16144206 </v>
  </varray>
  <energy>
   <i name="e_fr_energy">    -53.40977327 </i>
   <i name="e_wo_entrp">    -53.39672191 </i>
   <i name="e_0_energy">     -0.03915409 </i>
  </energy>
  <time name="totalsc">   32.54   32.72</time>
 </calculation>
 <calculation>
  <scstep>
   <time name="dav">    2.38    2.39</time>
   <time name="total">    3.06    3.08</time>
   <energy>
    <i name="alphaZ">    473.88674940 </i>
    <i name="ewald"> 306408.58847294 </i>
    <i name="hartreedc">-335633.32891782 </i>
    <i name="XCdc">    804.32255241 </i>
    <i name="pawpsdc">  31104.31699471 </i>
    <i name="pawaedc"> -33018.55474168 </i>
    <i name="eentropy">     -0.03417662 </i>
    <i name="bandstr">   -555.60799655 </i>
    <i name="atom">  30363.04050840 </i>
    <i name="e_fr_energy">    -53.37055480 </i>
    <i name="e_wo_entrp">    -53.33637818 </i>
    <i name="e_0_energy">    -53.35916259 </i>
   </energy>
  </scstep>
  <scstep>
   <time name="dav">    3.61    3.63</time>
   <time name="total">    4.29    4.31</time>
   <energy>
    <i name="e_fr_energy">    -57.86196539 </i>
    <i name="e_wo_entrp">    -57.90544728 </i>
    <i name="e_0_energy">    -57.87645935 </i>
   </energy>
  </scstep>
  <scstep>
   <time name="dav">    2.53    2.54</time>
   <time name="total">    3.21    3.23</time>
   <energy>
    <i name="e_fr_energy">    -53.41327739 </i>
    <i name="e_wo_entrp">    -53.36946668 </i>
    <i name="e_0_energy">    -53.39867382 </i>
   </energy>
  </scstep>
  <scstep>
   <time name="dav">    2.62    2.63</time>
   <time name="total">    3.30    3.32</time>
   <energy>
    <i name="e_fr_energy">    -53.57698335 </i>
    <i name="e_wo_entrp">    -53.53486018 </i>
    <i name="e_0_energy">    -53.56294229 </i>
   </energy>
  </scstep>
  <scstep>
   <time name="dav">    2.41    2.42</time>
   <time name="total">    3.09    3.11</time>
   <energy>
    <i name="e_fr_energy">    -53.57270991 </i>
    <i name="e_wo_entrp">    -53.53321170 </i>
    <i name="e_0_energy">    -53.55954384 </i>
   </energy>
  </scstep>
  <scstep>
   <time name="dav">    2.79    2.80</time>
   <time name="total">    3.48    3.49</time>
   <energy>
    <i name="e_fr_energy">    -53.56940218 </i>
    <i name="e_wo_entrp">    -53.53047724 </i>
    <i name="e_0_energy">    -53.55642720 </i>
   </energy>
  </scstep>
  <scstep>
   <time name="dav">    2.62    2.64</time>
   <time name="total">    3.30    3.35</time>
   <energy>
    <i name="e_fr_energy">    -53.56958620 </i>
    <i name="e_wo_entrp">    -53.52309969 </i>
    <i name="e_0_energy">    -53.55409069 </i>
   </energy>
  </scstep>
  <scstep>
   <time name="dav">    2.50    2.51</time>
   <time name="total">    3.18    3.20</time>
   <energy>
    <i name="e_fr_energy">    -53.57064163 </i>
    <i name="e_wo_entrp">    -53.52747014 </i>
    <i name="e_0_energy">    -53.55625114 </i>
   </energy>
  </scstep>
  <scstep>
   <time name="dav">    2.60    2.62</time>
   <time name="total">    3.29    3.31</time>
   <energy>
    <i name="e_fr_energy">    -53.56150854 </i>
    <i name="e_wo_entrp">    -53.52255215 </i>
    <i name="e_0_energy">    -53.54852308 </i>
   </energy>
  </scstep>
  <scstep>
   <time name="dav">    3.04    3.06</time>
   <time name="total">    3.72    3.75</time>
   <energy>
    <i name="e_fr_energy">    -53.56383535 </i>
    <i name="e_wo_entrp">    -53.52558011 </i>
    <i name="e_0_energy">    -53.55108360 </i>
   </energy>
  </scstep>
  <scstep>
   <time name="dav">    2.36    2.37</time>
   <time name="total">    3.04    3.06</time>
   <energy>
    <i name="e_fr_energy">    -53.56367225 </i>
    <i name="e_wo_entrp">    -53.52475486 </i>
    <i name="e_0_energy">    -53.55069979 </i>
   </energy>
  </scstep>
  <scstep>
   <time name="dav">    1.86    1.87</time>
   <time name="total">    2.54    2.55</time>
   <energy>
    <i name="e_fr_energy">    -53.56394644 </i>
    <i name="e_wo_entrp">    -53.52503282 </i>
    <i name="e_0_energy">    -53.55097523 </i>
   </energy>
  </scstep>
  <scstep>
   <time name="dav">    1.91    1.92</time>
   <time name="total">    2.59    2.61</time>
   <energy>
    <i name="e_fr_energy">    -53.56459542 </i>
    <i name="e_wo_entrp">    -53.52546347 </i>
    <i name="e_0_energy">    -53.55155143 </i>
   </energy>
  </scstep>
  <scstep>
   <time name="dav">    1.71    1.72</time>
   <time name="total">    2.39    2.41</time>
   <energy>
    <i name="e_fr_energy">    -53.56441568 </i>
    <i name="e_wo_entrp">    -53.52529922 </i>
    <i name="e_0_energy">    -53.55137686 </i>
   </energy>
  </scstep>
  <scstep>
   <time name="dav">    1.72    1.73</time>
   <time name="total">    2.40    2.41</time>
   <energy>
    <i name="e_fr_energy">    -53.56454296 </i>
    <i name="e_wo_entrp">    -53.52541590 </i>
    <i name="e_0_energy">    -53.55150061 </i>
   </energy>
  </scstep>
  <scstep>
   <time name="dav">    1.73    1.74</time>
   <time name="total">    2.41    2.43</time>
   <energy>
    <i name="e_fr_energy">    -53.56469539 </i>
    <i name="e_wo_entrp">    -53.52556929 </i>
    <i name="e_0_energy">    -53.55165336 </i>
   </energy>
  </scstep>
  <scstep>
   <time name="dav">    1.74    1.75</time>
   <time name="total">    2.32    2.33</time>
   <energy>
    <i name="alphaZ">    473.88674940 </i>
    <i name="ewald"> 306408.58847294 </i>
    <i name="hartreedc">-335632.49303011 </i>
    <i name="XCdc">    804.37890790 </i>
    <i name="pawpsdc">  30987.20164256 </i>
    <i name="pawaedc"> -32899.54623610 </i>
    <i name="eentropy">     -0.03908427 </i>
    <i name="bandstr">   -558.58272234 </i>
    <i name="atom">  30363.04050840 </i>
    <i name="e_fr_energy">    -53.56479164 </i>
    <i name="e_wo_entrp">    -53.52570736 </i>
    <i name="e_0_energy">    -53.55176355 </i>
   </energy>
  </scstep>
  <structure>
   <crystal>
    <varray name="basis" >
     <v>       4.94589787       0.00000000       0.00000000 </v>
     <v>       0.00000000       4.94589787       0.00000000 </v>
     <v>       0.00000000       0.00000000      34.49183377 </v>
    </varray>
    <i name="volume">    843.73598618 </i>
    <varray name="rec_basis" >
     <v>       0.20218776       0.00000000       0.00000000 </v>
     <v>       0.00000000       0.20218776       0.00000000 </v>
     <v>       0.00000000       0.00000000       0.02899237 </v>
    </varray>
   </crystal>
   <varray name="positions" >
    <v>      -0.00000000       0.00000000       0.34052693 </v>
    <v>       0.50000000       0.00000000       0.34052693 </v>
    <v>      -0.00000000       0.50000000       0.34052693 </v>
    <v>       0.50000000       0.50000000       0.34052693 </v>
    <v>       0.25000000       0.25000000       0.39282447 </v>
    <v>       0.75000000       0.25000000       0.39282447 </v>
    <v>       0.25000000       0.75000000       0.39282447 </v>
    <v>       0.75000000       0.75000000       0.39282447 </v>
    <v>       0.00000000      -0.00000000       0.44810197 </v>
    <v>       0.50000000       0.00000000       0.44810197 </v>
    <v>       0.00000000       0.50000000       0.44810197 </v>
    <v>       0.50000000       0.50000000       0.44810197 </v>
    <v>       0.25000000       0.25000000       0.50000000 </v>
    <v>       0.75000000       0.25000000       0.50000000 </v>
    <v>       0.25000000       0.75000000       0.50000000 </v>
[...]
        <r>  0.0002  0.0107  0.0075 </r>
        <r>  0.0002  0.0107  0.0075 </r>
        <r>  0.0002  0.0107  0.0075 </r>
        <r>  0.0000  0.0114  0.0079 </r>
        <r>  0.0000  0.0114  0.0079 </r>
        <r>  0.0000  0.0114  0.0079 </r>
        <r>  0.0000  0.0114  0.0079 </r>
        <r>  0.0002  0.0107  0.0075 </r>
        <r>  0.0002  0.0107  0.0075 </r>
        <r>  0.0002  0.0107  0.0075 </r>
        <r>  0.0002  0.0107  0.0075 </r>
        <r>  0.0007  0.0091  0.0065 </r>
        <r>  0.0007  0.0091  0.0065 </r>
        <r>  0.0007  0.0091  0.0065 </r>
        <r>  0.0007  0.0091  0.0065 </r>
        <r>  0.0013  0.0070  0.0061 </r>
        <r>  0.0013  0.0070  0.0061 </r>
        <r>  0.0013  0.0070  0.0061 </r>
        <r>  0.0013  0.0070  0.0061 </r>
       </set>
       <set comment="band 171">
        <r>  0.0013  0.0070  0.0061 </r>
        <r>  0.0013  0.0070  0.0061 </r>
        <r>  0.0013  0.0070  0.0061 </r>
        <r>  0.0013  0.0070  0.0061 </r>
        <r>  0.0007  0.0091  0.0065 </r>
        <r>  0.0007  0.0091  0.0065 </r>
        <r>  0.0007  0.0091  0.0065 </r>
        <r>  0.0007  0.0091  0.0065 </r>
        <r>  0.0002  0.0107  0.0075 </r>
        <r>  0.0002  0.0107  0.0075 </r>
        <r>  0.0002  0.0107  0.0075 </r>
        <r>  0.0002  0.0107  0.0075 </r>
        <r>  0.0000  0.0114  0.0079 </r>
        <r>  0.0000  0.0114  0.0079 </r>
        <r>  0.0000  0.0114  0.0079 </r>
        <r>  0.0000  0.0114  0.0079 </r>
        <r>  0.0002  0.0107  0.0075 </r>
        <r>  0.0002  0.0107  0.0075 </r>
        <r>  0.0002  0.0107  0.0075 </r>
        <r>  0.0002  0.0107  0.0075 </r>
        <r>  0.0007  0.0091  0.0065 </r>
        <r>  0.0007  0.0091  0.0065 </r>
        <r>  0.0007  0.0091  0.0065 </r>
        <r>  0.0007  0.0091  0.0065 </r>
        <r>  0.0013  0.0070  0.0061 </r>
        <r>  0.0013  0.0070  0.0061 </r>
        <r>  0.0013  0.0070  0.0061 </r>
        <r>  0.0013  0.0070  0.0061 </r>
       </set>
       <set comment="band 172">
        <r>  0.0007  0.0013  0.0009 </r>
        <r>  0.0007  0.0013  0.0009 </r>
        <r>  0.0007  0.0013  0.0009 </r>
        <r>  0.0007  0.0013  0.0009 </r>
        <r>  0.0007  0.0006  0.0007 </r>
        <r>  0.0007  0.0006  0.0007 </r>
        <r>  0.0007  0.0006  0.0007 </r>
        <r>  0.0007  0.0006  0.0007 </r>
        <r>  0.0006  0.0003  0.0005 </r>
        <r>  0.0006  0.0003  0.0005 </r>
        <r>  0.0006  0.0003  0.0005 </r>
        <r>  0.0006  0.0003  0.0005 </r>
        <r>  0.0006  0.0002  0.0004 </r>
        <r>  0.0006  0.0002  0.0004 </r>
        <r>  0.0006  0.0002  0.0004 </r>
        <r>  0.0006  0.0002  0.0004 </r>
        <r>  0.0006  0.0003  0.0005 </r>
        <r>  0.0006  0.0003  0.0005 </r>
        <r>  0.0006  0.0003  0.0005 </r>
        <r>  0.0006  0.0003  0.0005 </r>
        <r>  0.0007  0.0006  0.0007 </r>
        <r>  0.0007  0.0006  0.0007 </r>
        <r>  0.0007  0.0006  0.0007 </r>
        <r>  0.0007  0.0006  0.0007 </r>
        <r>  0.0007  0.0013  0.0009 </r>
        <r>  0.0007  0.0013  0.0009 </r>
        <r>  0.0007  0.0013  0.0009 </r>
        <r>  0.0007  0.0013  0.0009 </r>
       </set>
       <set comment="band 173">
        <r>  0.0002  0.0028  0.0012 </r>
        <r>  0.0002  0.0028  0.0012 </r>
        <r>  0.0002  0.0028  0.0012 </r>
        <r>  0.0002  0.0028  0.0012 </r>
        <r>  0.0001  0.0022  0.0011 </r>
        <r>  0.0001  0.0022  0.0011 </r>
        <r>  0.0001  0.0022  0.0011 </r>
        <r>  0.0001  0.0022  0.0011 </r>
        <r>  0.0000  0.0020  0.0010 </r>
        <r>  0.0000  0.0020  0.0010 </r>
        <r>  0.0000  0.0020  0.0010 </r>
        <r>  0.0000  0.0020  0.0010 </r>
        <r>  0.0000  0.0019  0.0010 </r>
        <r>  0.0000  0.0019  0.0010 </r>
        <r>  0.0000  0.0019  0.0010 </r>
        <r>  0.0000  0.0019  0.0010 </r>
        <r>  0.0000  0.0020  0.0010 </r>
        <r>  0.0000  0.0020  0.0010 </r>
        <r>  0.0000  0.0020  0.0010 </r>
        <r>  0.0000  0.0020  0.0010 </r>
        <r>  0.0001  0.0022  0.0011 </r>
        <r>  0.0001  0.0022  0.0011 </r>
        <r>  0.0001  0.0022  0.0011 </r>
        <r>  0.0001  0.0022  0.0011 </r>
        <r>  0.0002  0.0028  0.0012 </r>
        <r>  0.0002  0.0028  0.0012 </r>
        <r>  0.0002  0.0028  0.0012 </r>
        <r>  0.0002  0.0028  0.0012 </r>
       </set>
       <set comment="band 174">
        <r>  0.0011  0.0014  0.0011 </r>
        <r>  0.0011  0.0014  0.0011 </r>
        <r>  0.0011  0.0014  0.0011 </r>
        <r>  0.0011  0.0014  0.0011 </r>
        <r>  0.0009  0.0006  0.0008 </r>
        <r>  0.0009  0.0006  0.0008 </r>
        <r>  0.0009  0.0006  0.0008 </r>
        <r>  0.0009  0.0006  0.0008 </r>
        <r>  0.0008  0.0003  0.0006 </r>
        <r>  0.0008  0.0003  0.0006 </r>
        <r>  0.0008  0.0003  0.0006 </r>
        <r>  0.0008  0.0003  0.0006 </r>
        <r>  0.0008  0.0003  0.0006 </r>
        <r>  0.0008  0.0003  0.0006 </r>
        <r>  0.0008  0.0003  0.0006 </r>
        <r>  0.0008  0.0003  0.0006 </r>
        <r>  0.0008  0.0003  0.0006 </r>
        <r>  0.0008  0.0003  0.0006 </r>
        <r>  0.0008  0.0003  0.0006 </r>
        <r>  0.0008  0.0003  0.0006 </r>
        <r>  0.0009  0.0006  0.0008 </r>
        <r>  0.0009  0.0006  0.0008 </r>
        <r>  0.0009  0.0006  0.0008 </r>
        <r>  0.0009  0.0006  0.0008 </r>
        <r>  0.0011  0.0014  0.0011 </r>
        <r>  0.0011  0.0014  0.0011 </r>
        <r>  0.0011  0.0014  0.0011 </r>
        <r>  0.0011  0.0014  0.0011 </r>
       </set>
       <set comment="band 175">
        <r>  0.0015  0.0070  0.0053 </r>
        <r>  0.0015  0.0070  0.0053 </r>
        <r>  0.0015  0.0070  0.0053 </r>
        <r>  0.0015  0.0070  0.0053 </r>
        <r>  0.0009  0.0086  0.0058 </r>
        <r>  0.0009  0.0086  0.0058 </r>
        <r>  0.0009  0.0086  0.0058 </r>
        <r>  0.0009  0.0086  0.0058 </r>
        <r>  0.0003  0.0099  0.0067 </r>
        <r>  0.0003  0.0099  0.0067 </r>
        <r>  0.0003  0.0099  0.0067 </r>
        <r>  0.0003  0.0099  0.0067 </r>
        <r>  0.0000  0.0105  0.0070 </r>
        <r>  0.0000  0.0105  0.0070 </r>
        <r>  0.0000  0.0105  0.0070 </r>
        <r>  0.0000  0.0105  0.0070 </r>
        <r>  0.0003  0.0099  0.0067 </r>
        <r>  0.0003  0.0099  0.0067 </r>
        <r>  0.0003  0.0099  0.0067 </r>
        <r>  0.0003  0.0099  0.0067 </r>
        <r>  0.0009  0.0086  0.0058 </r>
        <r>  0.0009  0.0086  0.0058 </r>
        <r>  0.0009  0.0086  0.0058 </r>
        <r>  0.0009  0.0086  0.0058 </r>
        <r>  0.0015  0.0070  0.0053 </r>
        <r>  0.0015  0.0070  0.0053 </r>
        <r>  0.0015  0.0070  0.0053 </r>
        <r>  0.0015  0.0070  0.0053 </r>
       </set>
       <set comment="band 176">
        <r>  0.0000  0.0011  0.0009 </r>
        <r>  0.0012  0.0026  0.0014 </r>
        <r>  0.0012  0.0026  0.0014 </r>
        <r>  0.0000  0.0011  0.0009 </r>
        <r>  0.0000  0.0015  0.0008 </r>
        <r>  0.0006  0.0020  0.0020 </r>
        <r>  0.0006  0.0020  0.0020 </r>
        <r>  0.0000  0.0015  0.0008 </r>
        <r>  0.0000  0.0017  0.0009 </r>
        <r>  0.0004  0.0022  0.0021 </r>
        <r>  0.0004  0.0022  0.0021 </r>
        <r>  0.0000  0.0017  0.0009 </r>
        <r>  0.0000  0.0017  0.0010 </r>
        <r>  0.0003  0.0023  0.0022 </r>
        <r>  0.0003  0.0023  0.0022 </r>
        <r>  0.0000  0.0017  0.0010 </r>
        <r>  0.0000  0.0017  0.0009 </r>
        <r>  0.0004  0.0022  0.0021 </r>
        <r>  0.0004  0.0022  0.0021 </r>
        <r>  0.0000  0.0017  0.0009 </r>
        <r>  0.0000  0.0015  0.0008 </r>
        <r>  0.0006  0.0020  0.0020 </r>
        <r>  0.0006  0.0020  0.0020 </r>
        <r>  0.0000  0.0015  0.0008 </r>
        <r>  0.0000  0.0011  0.0009 </r>
        <r>  0.0012  0.0026  0.0014 </r>
        <r>  0.0012  0.0026  0.0014 </r>
        <r>  0.0000  0.0011  0.0009 </r>
       </set>
       <set comment="band 177">
        <r>  0.0012  0.0026  0.0014 </r>
        <r>  0.0000  0.0011  0.0009 </r>
        <r>  0.0000  0.0011  0.0009 </r>
        <r>  0.0012  0.0026  0.0014 </r>
        <r>  0.0006  0.0020  0.0020 </r>
        <r>  0.0000  0.0015  0.0008 </r>
        <r>  0.0000  0.0015  0.0008 </r>
        <r>  0.0006  0.0020  0.0020 </r>
        <r>  0.0004  0.0022  0.0021 </r>
        <r>  0.0000  0.0017  0.0009 </r>
        <r>  0.0000  0.0017  0.0009 </r>
        <r>  0.0004  0.0022  0.0021 </r>
        <r>  0.0003  0.0023  0.0022 </r>
        <r>  0.0000  0.0017  0.0010 </r>
        <r>  0.0000  0.0017  0.0010 </r>
        <r>  0.0003  0.0023  0.0022 </r>
        <r>  0.0004  0.0022  0.0021 </r>
        <r>  0.0000  0.0017  0.0009 </r>
        <r>  0.0000  0.0017  0.0009 </r>
        <r>  0.0004  0.0022  0.0021 </r>
        <r>  0.0006  0.0020  0.0020 </r>
        <r>  0.0000  0.0015  0.0008 </r>
        <r>  0.0000  0.0015  0.0008 </r>
        <r>  0.0006  0.0020  0.0020 </r>
        <r>  0.0012  0.0026  0.0014 </r>
        <r>  0.0000  0.0011  0.0009 </r>
        <r>  0.0000  0.0011  0.0009 </r>
        <r>  0.0012  0.0026  0.0014 </r>
       </set>
       <set comment="band 178">
        <r>  0.0008  0.0033  0.0015 </r>
        <r>  0.0008  0.0033  0.0015 </r>
        <r>  0.0008  0.0033  0.0015 </r>
        <r>  0.0008  0.0033  0.0015 </r>
        <r>  0.0003  0.0023  0.0011 </r>
        <r>  0.0003  0.0023  0.0011 </r>
        <r>  0.0003  0.0023  0.0011 </r>
        <r>  0.0003  0.0023  0.0011 </r>
        <r>  0.0001  0.0020  0.0009 </r>
        <r>  0.0001  0.0020  0.0009 </r>
        <r>  0.0001  0.0020  0.0009 </r>
        <r>  0.0001  0.0020  0.0009 </r>
        <r>  0.0000  0.0019  0.0008 </r>
        <r>  0.0000  0.0019  0.0008 </r>
        <r>  0.0000  0.0019  0.0008 </r>
        <r>  0.0000  0.0019  0.0008 </r>
        <r>  0.0001  0.0020  0.0009 </r>
        <r>  0.0001  0.0020  0.0009 </r>
        <r>  0.0001  0.0020  0.0009 </r>
        <r>  0.0001  0.0020  0.0009 </r>
        <r>  0.0003  0.0023  0.0011 </r>
        <r>  0.0003  0.0023  0.0011 </r>
        <r>  0.0003  0.0023  0.0011 </r>
        <r>  0.0003  0.0023  0.0011 </r>
        <r>  0.0008  0.0033  0.0015 </r>
        <r>  0.0008  0.0033  0.0015 </r>
        <r>  0.0008  0.0033  0.0015 </r>
        <r>  0.0008  0.0033  0.0015 </r>
       </set>
       <set comment="band 179">
        <r>  0.0000  0.0058  0.0038 </r>
        <r>  0.0000  0.0058  0.0038 </r>
        <r>  0.0000  0.0058  0.0038 </r>
        <r>  0.0000  0.0058  0.0038 </r>
        <r>  0.0000  0.0170  0.0082 </r>
        <r>  0.0000  0.0170  0.0082 </r>
        <r>  0.0000  0.0170  0.0082 </r>
        <r>  0.0000  0.0170  0.0082 </r>
        <r>  0.0000  0.0279  0.0128 </r>
        <r>  0.0000  0.0279  0.0128 </r>
        <r>  0.0000  0.0279  0.0128 </r>
        <r>  0.0000  0.0279  0.0128 </r>
        <r>  0.0000  0.0322  0.0145 </r>
        <r>  0.0000  0.0322  0.0145 </r>
        <r>  0.0000  0.0322  0.0145 </r>
        <r>  0.0000  0.0322  0.0145 </r>
        <r>  0.0000  0.0279  0.0128 </r>
        <r>  0.0000  0.0279  0.0128 </r>
        <r>  0.0000  0.0279  0.0128 </r>
        <r>  0.0000  0.0279  0.0128 </r>
        <r>  0.0000  0.0170  0.0082 </r>
        <r>  0.0000  0.0170  0.0082 </r>
        <r>  0.0000  0.0170  0.0082 </r>
        <r>  0.0000  0.0170  0.0082 </r>
        <r>  0.0000  0.0058  0.0038 </r>
        <r>  0.0000  0.0058  0.0038 </r>
        <r>  0.0000  0.0058  0.0038 </r>
        <r>  0.0000  0.0058  0.0038 </r>
       </set>
       <set comment="band 180">
        <r>  0.0001  0.0029  0.0014 </r>
        <r>  0.0002  0.0029  0.0014 </r>
        <r>  0.0002  0.0029  0.0014 </r>
        <r>  0.0001  0.0029  0.0014 </r>
        <r>  0.0000  0.0024  0.0012 </r>
        <r>  0.0001  0.0024  0.0012 </r>
        <r>  0.0001  0.0024  0.0012 </r>
        <r>  0.0000  0.0024  0.0012 </r>
        <r>  0.0000  0.0022  0.0012 </r>
        <r>  0.0000  0.0022  0.0012 </r>
        <r>  0.0000  0.0022  0.0012 </r>
        <r>  0.0000  0.0022  0.0012 </r>
        <r>  0.0000  0.0022  0.0012 </r>
        <r>  0.0000  0.0022  0.0011 </r>
        <r>  0.0000  0.0022  0.0011 </r>
        <r>  0.0000  0.0022  0.0012 </r>
        <r>  0.0000  0.0022  0.0012 </r>
        <r>  0.0000  0.0022  0.0012 </r>
        <r>  0.0000  0.0022  0.0012 </r>
        <r>  0.0000  0.0022  0.0012 </r>
        <r>  0.0000  0.0024  0.0012 </r>
        <r>  0.0001  0.0024  0.0012 </r>
        <r>  0.0001  0.0024  0.0012 </r>
        <r>  0.0000  0.0024  0.0012 </r>
        <r>  0.0001  0.0029  0.0014 </r>
        <r>  0.0002  0.0029  0.0014 </r>
        <r>  0.0002  0.0029  0.0014 </r>
        <r>  0.0001  0.0029  0.0014 </r>
       </set>
       <set comment="band 181">
        <r>  0.0002  0.0029  0.0014 </r>
        <r>  0.0001  0.0029  0.0014 </r>
        <r>  0.0001  0.0029  0.0014 </r>
        <r>  0.0002  0.0029  0.0014 </r>
        <r>  0.0001  0.0024  0.0012 </r>
        <r>  0.0000  0.0024  0.0012 </r>
        <r>  0.0000  0.0024  0.0012 </r>
        <r>  0.0001  0.0024  0.0012 </r>
        <r>  0.0000  0.0022  0.0012 </r>
        <r>  0.0000  0.0022  0.0012 </r>
        <r>  0.0000  0.0022  0.0012 </r>
        <r>  0.0000  0.0022  0.0012 </r>
        <r>  0.0000  0.0022  0.0011 </r>
        <r>  0.0000  0.0022  0.0012 </r>
        <r>  0.0000  0.0022  0.0012 </r>
        <r>  0.0000  0.0022  0.0011 </r>
        <r>  0.0000  0.0022  0.0012 </r>
        <r>  0.0000  0.0022  0.0012 </r>
        <r>  0.0000  0.0022  0.0012 </r>
        <r>  0.0000  0.0022  0.0012 </r>
        <r>  0.0001  0.0024  0.0012 </r>
        <r>  0.0000  0.0024  0.0012 </r>
        <r>  0.0000  0.0024  0.0012 </r>
        <r>  0.0001  0.0024  0.0012 </r>
        <r>  0.0002  0.0029  0.0014 </r>
        <r>  0.0001  0.0029  0.0014 </r>
        <r>  0.0001  0.0029  0.0014 </r>
        <r>  0.0002  0.0029  0.0014 </r>
       </set>
       <set comment="band 182">
        <r>  0.0000  0.0019  0.0029 </r>
        <r>  0.0001  0.0057  0.0034 </r>
        <r>  0.0001  0.0057  0.0034 </r>
        <r>  0.0000  0.0019  0.0029 </r>
        <r>  0.0001  0.0032  0.0083 </r>
        <r>  0.0017  0.0152  0.0045 </r>
        <r>  0.0017  0.0152  0.0045 </r>
        <r>  0.0001  0.0032  0.0083 </r>
        <r>  0.0001  0.0043  0.0134 </r>
        <r>  0.0038  0.0238  0.0056 </r>
        <r>  0.0038  0.0238  0.0056 </r>
        <r>  0.0001  0.0043  0.0134 </r>
        <r>  0.0001  0.0047  0.0152 </r>
        <r>  0.0046  0.0271  0.0060 </r>
        <r>  0.0046  0.0271  0.0060 </r>
        <r>  0.0001  0.0047  0.0152 </r>
        <r>  0.0001  0.0043  0.0134 </r>
        <r>  0.0038  0.0238  0.0056 </r>
        <r>  0.0038  0.0238  0.0056 </r>
        <r>  0.0001  0.0043  0.0134 </r>
        <r>  0.0001  0.0032  0.0083 </r>
        <r>  0.0017  0.0152  0.0045 </r>
        <r>  0.0017  0.0152  0.0045 </r>
        <r>  0.0001  0.0032  0.0083 </r>
        <r>  0.0000  0.0019  0.0029 </r>
        <r>  0.0001  0.0057  0.0034 </r>
        <r>  0.0001  0.0057  0.0034 </r>
        <r>  0.0000  0.0019  0.0029 </r>
       </set>
       <set comment="band 183">
        <r>  0.0001  0.0057  0.0034 </r>
        <r>  0.0000  0.0018  0.0029 </r>
        <r>  0.0000  0.0018  0.0029 </r>
        <r>  0.0001  0.0057  0.0034 </r>
        <r>  0.0018  0.0153  0.0045 </r>
        <r>  0.0001  0.0032  0.0083 </r>
        <r>  0.0001  0.0032  0.0083 </r>
        <r>  0.0018  0.0153  0.0045 </r>
        <r>  0.0038  0.0239  0.0056 </r>
        <r>  0.0001  0.0043  0.0134 </r>
        <r>  0.0001  0.0043  0.0134 </r>
        <r>  0.0038  0.0239  0.0056 </r>
        <r>  0.0047  0.0271  0.0060 </r>
        <r>  0.0001  0.0047  0.0152 </r>
        <r>  0.0001  0.0047  0.0152 </r>
        <r>  0.0047  0.0271  0.0060 </r>
        <r>  0.0038  0.0239  0.0056 </r>
        <r>  0.0001  0.0043  0.0134 </r>
        <r>  0.0001  0.0043  0.0134 </r>
        <r>  0.0038  0.0239  0.0056 </r>
        <r>  0.0018  0.0153  0.0045 </r>
        <r>  0.0001  0.0032  0.0083 </r>
        <r>  0.0001  0.0032  0.0083 </r>
        <r>  0.0018  0.0153  0.0045 </r>
        <r>  0.0001  0.0057  0.0034 </r>
        <r>  0.0000  0.0018  0.0029 </r>
        <r>  0.0000  0.0018  0.0029 </r>
        <r>  0.0001  0.0057  0.0034 </r>
       </set>
       <set comment="band 184">
        <r>  0.0001  0.0002  0.0031 </r>
        <r>  0.0037  0.0037  0.0009 </r>
        <r>  0.0037  0.0037  0.0009 </r>
        <r>  0.0001  0.0002  0.0031 </r>
        <r>  0.0002  0.0002  0.0050 </r>
        <r>  0.0064  0.0068  0.0008 </r>
        <r>  0.0064  0.0068  0.0008 </r>
        <r>  0.0002  0.0002  0.0050 </r>
        <r>  0.0003  0.0004  0.0075 </r>
        <r>  0.0090  0.0111  0.0008 </r>
        <r>  0.0090  0.0111  0.0008 </r>
        <r>  0.0003  0.0004  0.0075 </r>
        <r>  0.0003  0.0005  0.0085 </r>
        <r>  0.0100  0.0129  0.0008 </r>
        <r>  0.0100  0.0129  0.0008 </r>
        <r>  0.0003  0.0005  0.0085 </r>
        <r>  0.0003  0.0004  0.0075 </r>
        <r>  0.0090  0.0111  0.0008 </r>
        <r>  0.0090  0.0111  0.0008 </r>
        <r>  0.0003  0.0004  0.0075 </r>
        <r>  0.0002  0.0002  0.0050 </r>
        <r>  0.0064  0.0068  0.0008 </r>
        <r>  0.0064  0.0068  0.0008 </r>
        <r>  0.0002  0.0002  0.0050 </r>
        <r>  0.0001  0.0002  0.0031 </r>
        <r>  0.0037  0.0037  0.0009 </r>
        <r>  0.0037  0.0037  0.0009 </r>
        <r>  0.0001  0.0002  0.0031 </r>
       </set>
      </set>
     </set>
    </set>
   </array>
  </projected>
 </calculation>
 <structure name="finalpos" >
  <crystal>
   <varray name="basis" >
    <v>       4.94589787       0.00000000       0.00000000 </v>
    <v>       0.00000000       4.94589787       0.00000000 </v>
    <v>       0.00000000       0.00000000      34.49183377 </v>
   </varray>
   <i name="volume">    843.73598618 </i>
   <varray name="rec_basis" >
    <v>       0.20218776       0.00000000       0.00000000 </v>
    <v>       0.00000000       0.20218776       0.00000000 </v>
    <v>       0.00000000       0.00000000       0.02899237 </v>
   </varray>
  </crystal>
  <varray name="positions" >
   <v>      -0.00000000       0.00000000       0.33858232 </v>
   <v>       0.50000000       0.00000000       0.33858232 </v>
   <v>       0.00000000       0.50000000       0.33858232 </v>
   <v>       0.50000000       0.50000000       0.33858232 </v>
   <v>       0.25000000       0.25000000       0.39121851 </v>
   <v>       0.75000000       0.25000000       0.39121851 </v>
   <v>       0.25000000       0.75000000       0.39121851 </v>
   <v>       0.75000000       0.75000000       0.39121851 </v>
   <v>       0.00000000      -0.00000000       0.44566302 </v>
   <v>       0.50000000       0.00000000       0.44566302 </v>
   <v>       0.00000000       0.50000000       0.44566302 </v>
   <v>       0.50000000       0.50000000       0.44566302 </v>
   <v>       0.25000000       0.25000000       0.50000000 </v>
   <v>       0.75000000       0.25000000       0.50000000 </v>
   <v>       0.25000000       0.75000000       0.50000000 </v>
   <v>       0.75000000       0.75000000       0.50000000 </v>
   <v>      -0.00000000       0.00000000       0.55433698 </v>
   <v>       0.50000000      -0.00000000       0.55433698 </v>
   <v>      -0.00000000       0.50000000       0.55433698 </v>
   <v>       0.50000000       0.50000000       0.55433698 </v>
   <v>       0.25000000       0.25000000       0.60878149 </v>
   <v>       0.75000000       0.25000000       0.60878149 </v>
   <v>       0.25000000       0.75000000       0.60878149 </v>
   <v>       0.75000000       0.75000000       0.60878149 </v>
   <v>       0.00000000       0.00000000       0.66141768 </v>
   <v>       0.50000000      -0.00000000       0.66141768 </v>
   <v>      -0.00000000       0.50000000       0.66141768 </v>
   <v>       0.50000000       0.50000000       0.66141768 </v>
  </varray>
 </structure>
</modeling>
