 vasp.5.3.5 31Mar14 (build Apr 10 2015 15:15:37) complex                        
  
 executed on Linux-ifort-14-openm date 2017.10.20  08:43:04
 running on   12 total cores
 distrk:  each k-point on   12 cores,    1 groups
 distr:  one band on NCORES_PER_BAND=   1 cores,   12 groups


--------------------------------------------------------------------------------------------------------


 INCAR:
 POTCAR:    PAW_PBE Ni 02Aug2007                  

 ----------------------------------------------------------------------------- 
|                                                                             |
|           W    W    AA    RRRRR   N    N  II  N    N   GGGG   !!!           |
|           W    W   A  A   R    R  NN   N  II  NN   N  G    G  !!!           |
|           W    W  A    A  R    R  N N  N  II  N N  N  G       !!!           |
|           W WW W  AAAAAA  RRRRR   N  N N  II  N  N N  G  GGG   !            |
|           WW  WW  A    A  R   R   N   NN  II  N   NN  G    G                |
|           W    W  A    A  R    R  N    N  II  N    N   GGGG   !!!           |
|                                                                             |
|      For optimal performance we recommend to set                            |
|        NCORE= 4 - approx SQRT( number of cores)                             |
|      NCORE specifies how many cores store one orbital (NPAR=cpu/NCORE).     |
|      This setting can  greatly improve the performance of VASP for DFT.     |
|      The default, NPAR=number of cores might be grossly inefficient         |
|      on modern multi-core architectures or massively parallel machines.     |
|      Do your own testing !!!!                                               |
|      Unfortunately you need to use the default for GW and RPA calculations. |
|      (for HF NCORE is supported but not extensively tested yet)             |
|                                                                             |
 ----------------------------------------------------------------------------- 

 POTCAR:    PAW_PBE Ni 02Aug2007                  
   VRHFIN =Ni:                                                                  
   LEXCH  = PE                                                                  
   EATOM  =  1077.6739 eV,   79.2068 Ry                                         
                                                                                
   TITEL  = PAW_PBE Ni 02Aug2007                                                
   LULTRA =        F    use ultrasoft PP ?                                      
   IUNSCR =        1    unscreen: 0-lin 1-nonlin 2-no                           
   RPACOR =    2.000    partial core radius                                     
   POMASS =   58.690; ZVAL   =   10.000    mass and valenz                      
   RCORE  =    2.300    outmost cutoff radius                                   
   RWIGS  =    2.430; RWIGS  =    1.286    wigner-seitz radius (au A)           
   ENMAX  =  269.532; ENMIN  =  202.149 eV                                      
   RCLOC  =    1.201    cutoff for local pot                                    
   LCOR   =        T    correct aug charges                                     
   LPAW   =        T    paw PP                                                  
   EAUG   =  544.565                                                            
   DEXC   =    0.000                                                            
   RMAX   =    2.357    core radius for proj-oper                               
   RAUG   =    1.300    factor for augmentation sphere                          
   RDEP   =    2.390    radius for radial grids                                 
   RDEPT  =    1.838    core radius for aug-charge                              
                                                                                
   Atomic configuration                                                         
    9 entries                                                                   
     n  l   j            E        occ.                                          
     1  0  0.50     -8206.4253   2.0000                                         
     2  0  0.50      -976.1748   2.0000                                         
     2  1  1.50      -839.0571   6.0000                                         
     3  0  0.50      -105.9991   2.0000                                         
     3  1  1.50       -66.4603   6.0000                                         
     3  2  2.50        -4.6458   9.0000                                         
     4  0  0.50        -4.4926   1.0000                                         
     4  1  1.50        -4.0817   0.0000                                         
     4  3  2.50        -1.3606   0.0000                                         
   Description                                                                  
     l       E           TYP  RCUT    TYP  RCUT                                 
     2     -4.6457903     23  2.300                                             
     2     -6.0063729     23  2.300                                             
     0     -4.4925590     23  2.300                                             
     0      5.0102601     23  2.300                                             
     1     -2.7211652     23  2.300                                             
     1     16.5183231     23  2.300                                             
  local pseudopotential read in
  partial core-charges read in
  partial kinetic energy density read in
  atomic valenz-charges read in
  non local Contribution for L=           2  read in
    real space projection operators read in
  non local Contribution for L=           2  read in
    real space projection operators read in
  non local Contribution for L=           0  read in
    real space projection operators read in
  non local Contribution for L=           0  read in
    real space projection operators read in
  non local Contribution for L=           1  read in
    real space projection operators read in
  non local Contribution for L=           1  read in
    real space projection operators read in
    PAW grid and wavefunctions read in
 
   number of l-projection  operators is LMAX  =           6
   number of lm-projection operators is LMMAX =          18
 
  PAW_PBE Ni 02Aug2007                  :
 energy of atom  1       EATOM=-1077.6739
 kinetic energy error for atom=    0.0101 (will be added to EATOM!!)
 
 
 POSCAR: Ni                                      
  positions in direct lattice
  velocities in cartesian coordinates
 exchange correlation table for  LEXCH =        8
   RHO(1)=    0.500       N(1)  =     2000
   RHO(2)=  100.500       N(2)  =     4000
 


--------------------------------------------------------------------------------------------------------


 ion  position               nearest neighbor table
   1  0.000  0.000  0.000-   2 2.49   3 2.49   4 2.49   2 2.49   3 2.49   2 2.49   4 2.49   2 2.49
                             3 2.49   4 2.49   3 2.49   4 2.49
   2  0.000  0.500  0.500-   1 2.49   3 2.49   4 2.49   1 2.49   4 2.49   1 2.49   3 2.49   1 2.49
                             3 2.49   4 2.49   4 2.49   3 2.49
   3  0.500  0.000  0.500-   1 2.49   2 2.49   4 2.49   1 2.49   4 2.49   2 2.49   4 2.49   4 2.49
                             1 2.49   2 2.49   1 2.49   2 2.49
   4  0.500  0.500  0.000-   1 2.49   2 2.49   3 2.49   2 2.49   3 2.49   1 2.49   3 2.49   3 2.49
                             1 2.49   2 2.49   2 2.49   1 2.49
 
  LATTYP: Found a simple cubic cell.
 ALAT       =     3.5150643891
  
  Lattice vectors:
  
 A1 = (   3.5150643891,   0.0000000000,   0.0000000000)
 A2 = (   0.0000000000,   3.5150643891,   0.0000000000)
 A3 = (   0.0000000000,   0.0000000000,   3.5150643891)


Analysis of symmetry for initial positions (statically):
=====================================================================
 Subroutine PRICEL returns following result:
 
  LATTYP: Found a face centered cubic cell.
 ALAT       =     3.5150643891
  
  Lattice vectors:
  
 A1 = (   1.7575321945,   1.7575321945,  -0.0000000000)
 A2 = (   1.7575321945,   0.0000000000,  -1.7575321945)
 A3 = (   0.0000000000,   1.7575321945,  -1.7575321945)
 
   4 primitive cells build up your supercell.
 

 Routine SETGRP: Setting up the symmetry group for a 
 simple cubic supercell.


 Subroutine GETGRP returns: Found 48 space group operations
 (whereof 48 operations were pure point group operations)
 out of a pool of 48 trial point group operations.


The static configuration has the point symmetry O_h .


Analysis of symmetry for dynamics (positions and initial velocities):
=====================================================================
 Subroutine PRICEL returns following result:
 
  LATTYP: Found a face centered cubic cell.
 ALAT       =     3.5150643891
  
  Lattice vectors:
  
 A1 = (   1.7575321945,   1.7575321945,  -0.0000000000)
 A2 = (   1.7575321945,   0.0000000000,  -1.7575321945)
 A3 = (   0.0000000000,   1.7575321945,  -1.7575321945)
 
   4 primitive cells build up your supercell.
 

 Routine SETGRP: Setting up the symmetry group for a 
 simple cubic supercell.


 Subroutine GETGRP returns: Found 48 space group operations
 (whereof 48 operations were pure point group operations)
 out of a pool of 48 trial point group operations.


The dynamic configuration has the point symmetry O_h .


Analysis of magnetic symmetry:
=====================================================================
 Subroutine PRICEL returns following result:
 
  LATTYP: Found a face centered cubic cell.
 ALAT       =     3.5150643891
  
  Lattice vectors:
  
 A1 = (   1.7575321945,   1.7575321945,  -0.0000000000)
 A2 = (   1.7575321945,   0.0000000000,  -1.7575321945)
 A3 = (   0.0000000000,   1.7575321945,  -1.7575321945)
 
   4 primitive cells build up your supercell.
 

 Subroutine MAGSYM returns: Found 48 space group operations
 (whereof 48 operations were pure point group operations)
 out of a pool of 48 trial space group operations
 (whereof 48 operations were pure point group operations)
 and found also     4 'primitive' translations


The magnetic configuration has the point symmetry O_h .
 
 
 KPOINTS: KPOINTS created by Atomic Simulation Env

Automatic generation of k-mesh.
Space group operators:
 irot       det(A)        alpha          n_x          n_y          n_z        tau_x        tau_y        tau_z
    1     1.000000     0.000001     1.000000     0.000000     0.000000     0.000000     0.000000     0.000000
    2    -1.000000     0.000001     1.000000     0.000000     0.000000     0.000000     0.000000     0.000000
    3     1.000000   120.000000    -0.577350    -0.577350    -0.577350     0.000000     0.000000     0.000000
    4    -1.000000   120.000000    -0.577350    -0.577350    -0.577350     0.000000     0.000000     0.000000
    5     1.000000   120.000000     0.577350     0.577350     0.577350     0.000000     0.000000     0.000000
    6    -1.000000   120.000000     0.577350     0.577350     0.577350     0.000000     0.000000     0.000000
    7     1.000000    90.000000     0.000000     0.000000    -1.000000     0.000000     0.000000     0.000000
    8    -1.000000    90.000000     0.000000     0.000000    -1.000000     0.000000     0.000000     0.000000
    9     1.000000   180.000000     0.000000     0.707107     0.707107     0.000000     0.000000     0.000000
   10    -1.000000   180.000000     0.000000     0.707107     0.707107     0.000000     0.000000     0.000000
   11     1.000000    90.000000     0.000000     1.000000     0.000000     0.000000     0.000000     0.000000
   12    -1.000000    90.000000     0.000000     1.000000     0.000000     0.000000     0.000000     0.000000
   13     1.000000   180.000000     0.000000     0.000000     1.000000     0.000000     0.000000     0.000000
   14    -1.000000   180.000000     0.000000     0.000000     1.000000     0.000000     0.000000     0.000000
   15     1.000000   120.000000    -0.577350     0.577350     0.577350     0.000000     0.000000     0.000000
   16    -1.000000   120.000000    -0.577350     0.577350     0.577350     0.000000     0.000000     0.000000
   17     1.000000   120.000000    -0.577350     0.577350    -0.577350     0.000000     0.000000     0.000000
   18    -1.000000   120.000000    -0.577350     0.577350    -0.577350     0.000000     0.000000     0.000000
   19     1.000000    90.000000     0.000000     0.000000     1.000000     0.000000     0.000000     0.000000
   20    -1.000000    90.000000     0.000000     0.000000     1.000000     0.000000     0.000000     0.000000
   21     1.000000    90.000000    -1.000000     0.000000     0.000000     0.000000     0.000000     0.000000
   22    -1.000000    90.000000    -1.000000     0.000000     0.000000     0.000000     0.000000     0.000000
   23     1.000000   180.000000     0.707107     0.000000     0.707107     0.000000     0.000000     0.000000
   24    -1.000000   180.000000     0.707107     0.000000     0.707107     0.000000     0.000000     0.000000
   25     1.000000   120.000000     0.577350    -0.577350     0.577350     0.000000     0.000000     0.000000
   26    -1.000000   120.000000     0.577350    -0.577350     0.577350     0.000000     0.000000     0.000000
   27     1.000000   120.000000    -0.577350    -0.577350     0.577350     0.000000     0.000000     0.000000
   28    -1.000000   120.000000    -0.577350    -0.577350     0.577350     0.000000     0.000000     0.000000
   29     1.000000   180.000000     1.000000     0.000000     0.000000     0.000000     0.000000     0.000000
   30    -1.000000   180.000000     1.000000     0.000000     0.000000     0.000000     0.000000     0.000000
   31     1.000000    90.000000     0.000000    -1.000000     0.000000     0.000000     0.000000     0.000000
   32    -1.000000    90.000000     0.000000    -1.000000     0.000000     0.000000     0.000000     0.000000
   33     1.000000   180.000000     0.707107     0.707107     0.000000     0.000000     0.000000     0.000000
   34    -1.000000   180.000000     0.707107     0.707107     0.000000     0.000000     0.000000     0.000000
   35     1.000000    90.000000     1.000000     0.000000     0.000000     0.000000     0.000000     0.000000
   36    -1.000000    90.000000     1.000000     0.000000     0.000000     0.000000     0.000000     0.000000
   37     1.000000   120.000000     0.577350    -0.577350    -0.577350     0.000000     0.000000     0.000000
   38    -1.000000   120.000000     0.577350    -0.577350    -0.577350     0.000000     0.000000     0.000000
   39     1.000000   180.000000     0.000000     1.000000     0.000000     0.000000     0.000000     0.000000
   40    -1.000000   180.000000     0.000000     1.000000     0.000000     0.000000     0.000000     0.000000
   41     1.000000   120.000000     0.577350     0.577350    -0.577350     0.000000     0.000000     0.000000
   42    -1.000000   120.000000     0.577350     0.577350    -0.577350     0.000000     0.000000     0.000000
   43     1.000000   180.000000     0.000000    -0.707107     0.707107     0.000000     0.000000     0.000000
   44    -1.000000   180.000000     0.000000    -0.707107     0.707107     0.000000     0.000000     0.000000
   45     1.000000   180.000000     0.707107    -0.707107     0.000000     0.000000     0.000000     0.000000
   46    -1.000000   180.000000     0.707107    -0.707107     0.000000     0.000000     0.000000     0.000000
   47     1.000000   180.000000     0.707107     0.000000    -0.707107     0.000000     0.000000     0.000000
   48    -1.000000   180.000000     0.707107     0.000000    -0.707107     0.000000     0.000000     0.000000
 
 Subroutine IBZKPT returns following result:
 ===========================================
 
 Found     56 irreducible k-points:
 
 Following reciprocal coordinates:
            Coordinates               Weight
  0.041667  0.041667  0.041667      8.000000
  0.125000  0.041667  0.041667     24.000000
  0.208333  0.041667  0.041667     24.000000
  0.291667  0.041667  0.041667     24.000000
  0.375000  0.041667  0.041667     24.000000
  0.458333  0.041667  0.041667     24.000000
  0.125000  0.125000  0.041667     24.000000
  0.208333  0.125000  0.041667     48.000000
  0.291667  0.125000  0.041667     48.000000
  0.375000  0.125000  0.041667     48.000000
  0.458333  0.125000  0.041667     48.000000
  0.208333  0.208333  0.041667     24.000000
  0.291667  0.208333  0.041667     48.000000
  0.375000  0.208333  0.041667     48.000000
  0.458333  0.208333  0.041667     48.000000
  0.291667  0.291667  0.041667     24.000000
  0.375000  0.291667  0.041667     48.000000
  0.458333  0.291667  0.041667     48.000000
  0.375000  0.375000  0.041667     24.000000
  0.458333  0.375000  0.041667     48.000000
  0.458333  0.458333  0.041667     24.000000
  0.125000  0.125000  0.125000      8.000000
  0.208333  0.125000  0.125000     24.000000
  0.291667  0.125000  0.125000     24.000000
  0.375000  0.125000  0.125000     24.000000
  0.458333  0.125000  0.125000     24.000000
  0.208333  0.208333  0.125000     24.000000
  0.291667  0.208333  0.125000     48.000000
  0.375000  0.208333  0.125000     48.000000
  0.458333  0.208333  0.125000     48.000000
  0.291667  0.291667  0.125000     24.000000
  0.375000  0.291667  0.125000     48.000000
  0.458333  0.291667  0.125000     48.000000
  0.375000  0.375000  0.125000     24.000000
  0.458333  0.375000  0.125000     48.000000
  0.458333  0.458333  0.125000     24.000000
  0.208333  0.208333  0.208333      8.000000
  0.291667  0.208333  0.208333     24.000000
  0.375000  0.208333  0.208333     24.000000
  0.458333  0.208333  0.208333     24.000000
  0.291667  0.291667  0.208333     24.000000
  0.375000  0.291667  0.208333     48.000000
  0.458333  0.291667  0.208333     48.000000
  0.375000  0.375000  0.208333     24.000000
  0.458333  0.375000  0.208333     48.000000
  0.458333  0.458333  0.208333     24.000000
  0.291667  0.291667  0.291667      8.000000
  0.375000  0.291667  0.291667     24.000000
  0.458333  0.291667  0.291667     24.000000
  0.375000  0.375000  0.291667     24.000000
  0.458333  0.375000  0.291667     48.000000
  0.458333  0.458333  0.291667     24.000000
  0.375000  0.375000  0.375000      8.000000
  0.458333  0.375000  0.375000     24.000000
  0.458333  0.458333  0.375000     24.000000
  0.458333  0.458333  0.458333      8.000000
 
 Following cartesian coordinates:
            Coordinates               Weight
  0.011854  0.011854  0.011854      8.000000
  0.035561  0.011854  0.011854     24.000000
  0.059269  0.011854  0.011854     24.000000
  0.082976  0.011854  0.011854     24.000000
  0.106684  0.011854  0.011854     24.000000
  0.130391  0.011854  0.011854     24.000000
  0.035561  0.035561  0.011854     24.000000
  0.059269  0.035561  0.011854     48.000000
  0.082976  0.035561  0.011854     48.000000
  0.106684  0.035561  0.011854     48.000000
  0.130391  0.035561  0.011854     48.000000
  0.059269  0.059269  0.011854     24.000000
  0.082976  0.059269  0.011854     48.000000
  0.106684  0.059269  0.011854     48.000000
  0.130391  0.059269  0.011854     48.000000
  0.082976  0.082976  0.011854     24.000000
  0.106684  0.082976  0.011854     48.000000
  0.130391  0.082976  0.011854     48.000000
  0.106684  0.106684  0.011854     24.000000
  0.130391  0.106684  0.011854     48.000000
  0.130391  0.130391  0.011854     24.000000
  0.035561  0.035561  0.035561      8.000000
  0.059269  0.035561  0.035561     24.000000
  0.082976  0.035561  0.035561     24.000000
  0.106684  0.035561  0.035561     24.000000
  0.130391  0.035561  0.035561     24.000000
  0.059269  0.059269  0.035561     24.000000
  0.082976  0.059269  0.035561     48.000000
  0.106684  0.059269  0.035561     48.000000
  0.130391  0.059269  0.035561     48.000000
  0.082976  0.082976  0.035561     24.000000
  0.106684  0.082976  0.035561     48.000000
  0.130391  0.082976  0.035561     48.000000
  0.106684  0.106684  0.035561     24.000000
  0.130391  0.106684  0.035561     48.000000
  0.130391  0.130391  0.035561     24.000000
  0.059269  0.059269  0.059269      8.000000
  0.082976  0.059269  0.059269     24.000000
  0.106684  0.059269  0.059269     24.000000
  0.130391  0.059269  0.059269     24.000000
  0.082976  0.082976  0.059269     24.000000
  0.106684  0.082976  0.059269     48.000000
  0.130391  0.082976  0.059269     48.000000
  0.106684  0.106684  0.059269     24.000000
  0.130391  0.106684  0.059269     48.000000
  0.130391  0.130391  0.059269     24.000000
  0.082976  0.082976  0.082976      8.000000
  0.106684  0.082976  0.082976     24.000000
  0.130391  0.082976  0.082976     24.000000
  0.106684  0.106684  0.082976     24.000000
  0.130391  0.106684  0.082976     48.000000
  0.130391  0.130391  0.082976     24.000000
  0.106684  0.106684  0.106684      8.000000
  0.130391  0.106684  0.106684     24.000000
  0.130391  0.130391  0.106684     24.000000
  0.130391  0.130391  0.130391      8.000000
 


--------------------------------------------------------------------------------------------------------




 Dimension of arrays:
   k-points           NKPTS =     56   k-points in BZ     NKDIM =     56   number of bands    NBANDS=     36
   number of dos      NEDOS =   3000   number of ions     NIONS =      4
   non local maximal  LDIM  =      6   non local SUM 2l+1 LMDIM =     18
   total plane-waves  NPLWV =   5832
   max r-space proj   IRMAX =      1   max aug-charges    IRDMAX=   4552
   dimension x,y,z NGX =    18 NGY =   18 NGZ =   18
   dimension x,y,z NGXF=    36 NGYF=   36 NGZF=   36
   support grid    NGXF=    36 NGYF=   36 NGZF=   36
   ions per type =               4
 NGX,Y,Z   is equivalent  to a cutoff of   8.51,  8.51,  8.51 a.u.
 NGXF,Y,Z  is equivalent  to a cutoff of  17.03, 17.03, 17.03 a.u.


 I would recommend the setting:
   dimension x,y,z NGX =    17 NGY =   17 NGZ =   17
 SYSTEM =  unknown system                          
 POSCAR =  Ni                                      

 Startparameter for this run:
   NWRITE =      2    write-flag & timer
   PREC   = normal    normal or accurate (medium, high low for compatibility)
   ISTART =      1    job   : 0-new  1-cont  2-samecut
   ICHARG =      0    charge: 1-file 2-atom 10-const
   ISPIN  =      2    spin polarized calculation?
   LNONCOLLINEAR =      F non collinear calculations
   LSORBIT =      F    spin-orbit coupling
   INIWAV =      1    electr: 0-lowe 1-rand  2-diag
   LASPH  =      T    aspherical Exc in radial PAW
   METAGGA=      F    non-selfconsistent MetaGGA calc.
   LSOL =      F    Solvation

 Electronic Relaxation 1
   ENCUT  =  400.0 eV  29.40 Ry    5.42 a.u.   5.73  5.73  5.73*2*pi/ulx,y,z
   ENINI  =  400.0     initial cutoff
   ENAUG  =  544.6 eV  augmentation charge cutoff
   NELM   =    100;   NELMIN=  2; NELMDL=  0     # of ELM steps 
   EDIFF  = 0.1E-04   stopping-criterion for ELM
   LREAL  =      F    real-space projection
   NLSPLINE    = F    spline interpolate recip. space projectors
   LCOMPAT=      F    compatible to vasp.4.4
   GGA_COMPAT  = T    GGA compatible to vasp.4.4-vasp.4.6
   LMAXPAW     = -100 max onsite density
   LMAXMIX     =    2 max onsite mixed and CHGCAR
   VOSKOWN=      0    Vosko Wilk Nusair interpolation
   ROPT   =    0.00000
 Ionic relaxation
   EDIFFG = -.1E-01   stopping-criterion for IOM
   NSW    =      0    number of steps for IOM
   NBLOCK =      1;   KBLOCK =      1    inner block; outer block 
   IBRION =     -1    ionic relax: 0-MD 1-quasi-New 2-CG
   NFREE  =      1    steps in history (QN), initial steepest desc. (CG)
   ISIF   =      3    stress and relaxation
   IWAVPR =     10    prediction:  0-non 1-charg 2-wave 3-comb
   ISYM   =      2    0-nonsym 1-usesym 2-fastsym
   LCORR  =      T    Harris-Foulkes like correction to forces

   POTIM  = 0.5000    time-step for ionic-motion
   TEIN   =    0.0    initial temperature
   TEBEG  =    0.0;   TEEND  =   0.0 temperature during run
   SMASS  =  -3.00    Nose mass-parameter (am)
   estimated Nose-frequenzy (Omega)   =  0.10E-29 period in steps =****** mass=  -0.282E-27a.u.
   SCALEE = 1.0000    scale energy and forces
   NPACO  =    256;   APACO  = 16.0  distance and # of slots for P.C.
   PSTRESS=    0.0 pullay stress

  Mass of Ions in am
   POMASS =  58.69
  Ionic Valenz
   ZVAL   =  10.00
  Atomic Wigner-Seitz radii
   RWIGS  =  -1.00
  virtual crystal weights 
   VCA    =   1.00
   NELECT =      40.0000    total number of electrons
   NUPDOWN=      -1.0000    fix difference up-down

 DOS related values:
   EMIN   =  10.00;   EMAX   =-10.00  energy-range for DOS
   EFERMI =   0.00
   ISMEAR =     1;   SIGMA  =   0.20  broadening in eV -4-tet -1-fermi 0-gaus

 Electronic relaxation 2 (details)
   IALGO  =     38    algorithm
   LDIAG  =      T    sub-space diagonalisation (order eigenvalues)
   LSUBROT=      F    optimize rotation matrix (better conditioning)
   TURBO    =      0    0=normal 1=particle mesh
   IRESTART =      0    0=no restart 2=restart with 2 vectors
   NREBOOT  =      0    no. of reboots
   NMIN     =      0    reboot dimension
   EREF     =   0.00    reference energy to select bands
   IMIX   =      4    mixing-type and parameters
     AMIX     =   0.40;   BMIX     =  1.00
     AMIX_MAG =   1.60;   BMIX_MAG =  1.00
     AMIN     =   0.10
     WC   =   100.;   INIMIX=   1;  MIXPRE=   1;  MAXMIX= -45

 Intra band minimization:
   WEIMIN = 0.0000     energy-eigenvalue tresh-hold
   EBREAK =  0.69E-07  absolut break condition
   DEPER  =   0.30     relativ break condition  

   TIME   =   0.40     timestep for ELM

  volume/ion in A,a.u.               =      10.86        73.27
  Fermi-wavevector in a.u.,A,eV,Ry     =   1.592801  3.009958 34.518189  2.537015
  Thomas-Fermi vector in A             =   2.691130
 
 Write flags
   LWAVE  =      T    write WAVECAR
   LCHARG =      T    write CHGCAR
   LVTOT  =      T    write LOCPOT, total local potential
   LVHAR  =      F    write LOCPOT, Hartree potential only
   LELF   =      F    write electronic localiz. function (ELF)
   LORBIT =     11    0 simple, 1 ext, 2 COOP (PROOUT)


 Dipole corrections
   LMONO  =      F    monopole corrections only (constant potential shift)
   LDIPOL =      F    correct potential (dipole corrections)
   IDIPOL =      0    1-x, 2-y, 3-z, 4-all directions 
   EPSILON=  1.0000000 bulk dielectric constant

 Exchange correlation treatment:
   GGA     =    PE    GGA type
   LEXCH   =     8    internal setting for exchange type
   VOSKOWN=      0    Vosko Wilk Nusair interpolation
   LHFCALC =     F    Hartree Fock is set to
   LHFONE  =     F    Hartree Fock one center treatment
   AEXX    =    0.0000 exact exchange contribution

 Linear response parameters
   LEPSILON=     F    determine dielectric tensor
   LRPA    =     F    only Hartree local field effects (RPA)
   LNABLA  =     F    use nabla operator in PAW spheres
   LVEL    =     F    velocity operator in full k-point grid
   LINTERFAST=   F  fast interpolation
   KINTER  =     0    interpolate to denser k-point grid
   CSHIFT  =0.1000    complex shift for real part using Kramers Kronig
   OMEGAMAX=  -1.0    maximum frequency
   DEG_THRESHOLD= 0.2000000E-02 threshold for treating states as degnerate
   RTIME   =    0.100 relaxation time in fs

 Orbital magnetization related:
   ORBITALMAG=     F  switch on orbital magnetization
   LCHIMAG   =     F  perturbation theory with respect to B field
   DQ        =  0.001000  dq finite difference perturbation B field



--------------------------------------------------------------------------------------------------------


 Static calculation
 charge density and potential will be updated during run
 spin polarized calculation
 Variant of blocked Davidson
 Davidson routine will perform the subspace rotation
 perform sub-space diagonalisation
    after iterative eigenvector-optimisation
 modified Broyden-mixing scheme, WC =      100.0
 initial mixing is a Kerker type mixing with AMIX =  0.4000 and BMIX =      1.0000
 Hartree-type preconditioning will be used
 using additional bands           16
 reciprocal scheme for non local part
 use partial core corrections
 calculate Harris-corrections to forces 
   (improved forces if not selfconsistent)
 use gradient corrections 
 use of overlap-Matrix (Vanderbilt PP)
 Methfessel and Paxton  Order N= 1 SIGMA  =   0.20


--------------------------------------------------------------------------------------------------------


  energy-cutoff  :      400.00
  volume of cell :       43.43
      direct lattice vectors                 reciprocal lattice vectors
     3.515064389  0.000000000  0.000000000     0.284489810  0.000000000  0.000000000
     0.000000000  3.515064389  0.000000000     0.000000000  0.284489810  0.000000000
     0.000000000  0.000000000  3.515064389     0.000000000  0.000000000  0.284489810

  length of vectors
     3.515064389  3.515064389  3.515064389     0.284489810  0.284489810  0.284489810


 
 old parameters found on file WAVECAR:
  energy-cutoff  :      400.00
  volume of cell :       43.43
      direct lattice vectors                 reciprocal lattice vectors
     3.515064389  0.000000000  0.000000000     0.284489810  0.000000000  0.000000000
     0.000000000  3.515064389  0.000000000     0.000000000  0.284489810  0.000000000
     0.000000000  0.000000000  3.515064389     0.000000000  0.000000000  0.284489810

  length of vectors

 
 k-points in units of 2pi/SCALE and weight: KPOINTS created by Atomic Simulation Env
   0.01185374  0.01185374  0.01185374       0.005
   0.03556123  0.01185374  0.01185374       0.014
   0.05926871  0.01185374  0.01185374       0.014
   0.08297619  0.01185374  0.01185374       0.014
   0.10668368  0.01185374  0.01185374       0.014
   0.13039116  0.01185374  0.01185374       0.014
   0.03556123  0.03556123  0.01185374       0.014
   0.05926871  0.03556123  0.01185374       0.028
   0.08297619  0.03556123  0.01185374       0.028
   0.10668368  0.03556123  0.01185374       0.028
   0.13039116  0.03556123  0.01185374       0.028
   0.05926871  0.05926871  0.01185374       0.014
   0.08297619  0.05926871  0.01185374       0.028
   0.10668368  0.05926871  0.01185374       0.028
   0.13039116  0.05926871  0.01185374       0.028
   0.08297619  0.08297619  0.01185374       0.014
   0.10668368  0.08297619  0.01185374       0.028
   0.13039116  0.08297619  0.01185374       0.028
   0.10668368  0.10668368  0.01185374       0.014
   0.13039116  0.10668368  0.01185374       0.028
   0.13039116  0.13039116  0.01185374       0.014
   0.03556123  0.03556123  0.03556123       0.005
   0.05926871  0.03556123  0.03556123       0.014
   0.08297619  0.03556123  0.03556123       0.014
   0.10668368  0.03556123  0.03556123       0.014
   0.13039116  0.03556123  0.03556123       0.014
   0.05926871  0.05926871  0.03556123       0.014
   0.08297619  0.05926871  0.03556123       0.028
   0.10668368  0.05926871  0.03556123       0.028
   0.13039116  0.05926871  0.03556123       0.028
   0.08297619  0.08297619  0.03556123       0.014
   0.10668368  0.08297619  0.03556123       0.028
   0.13039116  0.08297619  0.03556123       0.028
   0.10668368  0.10668368  0.03556123       0.014
   0.13039116  0.10668368  0.03556123       0.028
   0.13039116  0.13039116  0.03556123       0.014
   0.05926871  0.05926871  0.05926871       0.005
   0.08297619  0.05926871  0.05926871       0.014
   0.10668368  0.05926871  0.05926871       0.014
   0.13039116  0.05926871  0.05926871       0.014
   0.08297619  0.08297619  0.05926871       0.014
   0.10668368  0.08297619  0.05926871       0.028
   0.13039116  0.08297619  0.05926871       0.028
   0.10668368  0.10668368  0.05926871       0.014
   0.13039116  0.10668368  0.05926871       0.028
   0.13039116  0.13039116  0.05926871       0.014
   0.08297619  0.08297619  0.08297619       0.005
   0.10668368  0.08297619  0.08297619       0.014
   0.13039116  0.08297619  0.08297619       0.014
   0.10668368  0.10668368  0.08297619       0.014
   0.13039116  0.10668368  0.08297619       0.028
   0.13039116  0.13039116  0.08297619       0.014
   0.10668368  0.10668368  0.10668368       0.005
   0.13039116  0.10668368  0.10668368       0.014
   0.13039116  0.13039116  0.10668368       0.014
   0.13039116  0.13039116  0.13039116       0.005
 
 k-points in reciprocal lattice and weights: KPOINTS created by Atomic Simulation Env
   0.04166667  0.04166667  0.04166667       0.005
   0.12500000  0.04166667  0.04166667       0.014
   0.20833333  0.04166667  0.04166667       0.014
   0.29166667  0.04166667  0.04166667       0.014
   0.37500000  0.04166667  0.04166667       0.014
   0.45833333  0.04166667  0.04166667       0.014
   0.12500000  0.12500000  0.04166667       0.014
   0.20833333  0.12500000  0.04166667       0.028
   0.29166667  0.12500000  0.04166667       0.028
   0.37500000  0.12500000  0.04166667       0.028
   0.45833333  0.12500000  0.04166667       0.028
   0.20833333  0.20833333  0.04166667       0.014
   0.29166667  0.20833333  0.04166667       0.028
   0.37500000  0.20833333  0.04166667       0.028
   0.45833333  0.20833333  0.04166667       0.028
   0.29166667  0.29166667  0.04166667       0.014
   0.37500000  0.29166667  0.04166667       0.028
   0.45833333  0.29166667  0.04166667       0.028
   0.37500000  0.37500000  0.04166667       0.014
   0.45833333  0.37500000  0.04166667       0.028
   0.45833333  0.45833333  0.04166667       0.014
   0.12500000  0.12500000  0.12500000       0.005
   0.20833333  0.12500000  0.12500000       0.014
   0.29166667  0.12500000  0.12500000       0.014
   0.37500000  0.12500000  0.12500000       0.014
   0.45833333  0.12500000  0.12500000       0.014
   0.20833333  0.20833333  0.12500000       0.014
   0.29166667  0.20833333  0.12500000       0.028
   0.37500000  0.20833333  0.12500000       0.028
   0.45833333  0.20833333  0.12500000       0.028
   0.29166667  0.29166667  0.12500000       0.014
   0.37500000  0.29166667  0.12500000       0.028
   0.45833333  0.29166667  0.12500000       0.028
   0.37500000  0.37500000  0.12500000       0.014
   0.45833333  0.37500000  0.12500000       0.028
   0.45833333  0.45833333  0.12500000       0.014
   0.20833333  0.20833333  0.20833333       0.005
   0.29166667  0.20833333  0.20833333       0.014
   0.37500000  0.20833333  0.20833333       0.014
   0.45833333  0.20833333  0.20833333       0.014
   0.29166667  0.29166667  0.20833333       0.014
   0.37500000  0.29166667  0.20833333       0.028
   0.45833333  0.29166667  0.20833333       0.028
   0.37500000  0.37500000  0.20833333       0.014
   0.45833333  0.37500000  0.20833333       0.028
   0.45833333  0.45833333  0.20833333       0.014
   0.29166667  0.29166667  0.29166667       0.005
   0.37500000  0.29166667  0.29166667       0.014
   0.45833333  0.29166667  0.29166667       0.014
   0.37500000  0.37500000  0.29166667       0.014
   0.45833333  0.37500000  0.29166667       0.028
   0.45833333  0.45833333  0.29166667       0.014
   0.37500000  0.37500000  0.37500000       0.005
   0.45833333  0.37500000  0.37500000       0.014
   0.45833333  0.45833333  0.37500000       0.014
   0.45833333  0.45833333  0.45833333       0.005
 
 position of ions in fractional coordinates (direct lattice) 
   0.00000000  0.00000000  0.00000000
   0.00000000  0.50000000  0.50000000
   0.50000000  0.00000000  0.50000000
   0.50000000  0.50000000  0.00000000
 
 position of ions in cartesian coordinates  (Angst):
   0.00000000  0.00000000  0.00000000
   0.00000000  1.75753219  1.75753219
   1.75753219  0.00000000  1.75753219
   1.75753219  1.75753219  0.00000000
 


--------------------------------------------------------------------------------------------------------


 k-point  1 :   0.0417 0.0417 0.0417  plane waves:     766
 k-point  2 :   0.1250 0.0417 0.0417  plane waves:     778
 k-point  3 :   0.2083 0.0417 0.0417  plane waves:     788
 k-point  4 :   0.2917 0.0417 0.0417  plane waves:     793
 k-point  5 :   0.3750 0.0417 0.0417  plane waves:     799
 k-point  6 :   0.4583 0.0417 0.0417  plane waves:     801
 k-point  7 :   0.1250 0.1250 0.0417  plane waves:     779
 k-point  8 :   0.2083 0.1250 0.0417  plane waves:     788
 k-point  9 :   0.2917 0.1250 0.0417  plane waves:     792
 k-point 10 :   0.3750 0.1250 0.0417  plane waves:     792
 k-point 11 :   0.4583 0.1250 0.0417  plane waves:     797
 k-point 12 :   0.2083 0.2083 0.0417  plane waves:     787
 k-point 13 :   0.2917 0.2083 0.0417  plane waves:     791
 k-point 14 :   0.3750 0.2083 0.0417  plane waves:     792
 k-point 15 :   0.4583 0.2083 0.0417  plane waves:     792
 k-point 16 :   0.2917 0.2917 0.0417  plane waves:     786
 k-point 17 :   0.3750 0.2917 0.0417  plane waves:     789
 k-point 18 :   0.4583 0.2917 0.0417  plane waves:     794
 k-point 19 :   0.3750 0.3750 0.0417  plane waves:     788
 k-point 20 :   0.4583 0.3750 0.0417  plane waves:     792
 k-point 21 :   0.4583 0.4583 0.0417  plane waves:     787
 k-point 22 :   0.1250 0.1250 0.1250  plane waves:     787
 k-point 23 :   0.2083 0.1250 0.1250  plane waves:     793
 k-point 24 :   0.2917 0.1250 0.1250  plane waves:     798
 k-point 25 :   0.3750 0.1250 0.1250  plane waves:     792
 k-point 26 :   0.4583 0.1250 0.1250  plane waves:     793
 k-point 27 :   0.2083 0.2083 0.1250  plane waves:     795
 k-point 28 :   0.2917 0.2083 0.1250  plane waves:     790
 k-point 29 :   0.3750 0.2083 0.1250  plane waves:     782
 k-point 30 :   0.4583 0.2083 0.1250  plane waves:     786
 k-point 31 :   0.2917 0.2917 0.1250  plane waves:     784
 k-point 32 :   0.3750 0.2917 0.1250  plane waves:     786
 k-point 33 :   0.4583 0.2917 0.1250  plane waves:     794
 k-point 34 :   0.3750 0.3750 0.1250  plane waves:     794
 k-point 35 :   0.4583 0.3750 0.1250  plane waves:     791
 k-point 36 :   0.4583 0.4583 0.1250  plane waves:     791
 k-point 37 :   0.2083 0.2083 0.2083  plane waves:     790
 k-point 38 :   0.2917 0.2083 0.2083  plane waves:     783
 k-point 39 :   0.3750 0.2083 0.2083  plane waves:     789
 k-point 40 :   0.4583 0.2083 0.2083  plane waves:     788
 k-point 41 :   0.2917 0.2917 0.2083  plane waves:     781
 k-point 42 :   0.3750 0.2917 0.2083  plane waves:     788
 k-point 43 :   0.4583 0.2917 0.2083  plane waves:     787
 k-point 44 :   0.3750 0.3750 0.2083  plane waves:     789
 k-point 45 :   0.4583 0.3750 0.2083  plane waves:     788
 k-point 46 :   0.4583 0.4583 0.2083  plane waves:     787
 k-point 47 :   0.2917 0.2917 0.2917  plane waves:     790
 k-point 48 :   0.3750 0.2917 0.2917  plane waves:     787
 k-point 49 :   0.4583 0.2917 0.2917  plane waves:     780
 k-point 50 :   0.3750 0.3750 0.2917  plane waves:     788
 k-point 51 :   0.4583 0.3750 0.2917  plane waves:     786
 k-point 52 :   0.4583 0.4583 0.2917  plane waves:     786
 k-point 53 :   0.3750 0.3750 0.3750  plane waves:     786
 k-point 54 :   0.4583 0.3750 0.3750  plane waves:     784
 k-point 55 :   0.4583 0.4583 0.3750  plane waves:     786
 k-point 56 :   0.4583 0.4583 0.4583  plane waves:     789

 maximum and minimum number of plane-waves per node :       801      766

 maximum number of plane-waves:       801
 maximum index in each direction: 
   IXMAX=    5   IYMAX=    5   IZMAX=    5
   IXMIN=   -6   IYMIN=   -6   IZMIN=   -6

 WARNING: aliasing errors must be expected set NGX to  24 to avoid them
 WARNING: aliasing errors must be expected set NGY to  24 to avoid them
 WARNING: aliasing errors must be expected set NGZ to  24 to avoid them
 aliasing errors are usually negligible using standard VASP settings
 and one can safely disregard these warnings

 serial   3D FFT for wavefunctions
 parallel 3D FFT for charge:
    minimum data exchange during FFTs selected (reduces bandwidth)


 total amount of memory used by VASP on root node    42296. kBytes
========================================================================

   base      :      30000. kBytes
   nonl-proj :       6534. kBytes
   fftplans  :        161. kBytes
   grid      :        768. kBytes
   one-center:        124. kBytes
   wavefun   :       4709. kBytes
 
     INWAV:  cpu time    0.21: real time    0.21
 Broyden mixing: mesh for mixing (old mesh)
   NGX = 11   NGY = 11   NGZ = 11
  (NGX  = 36   NGY  = 36   NGZ  = 36)
  gives a total of   1331 points

 charge density for first step will be calculated from the start-wavefunctions


--------------------------------------------------------------------------------------------------------


 Maximum index for augmentation-charges          394 (set IRDMAX)


--------------------------------------------------------------------------------------------------------


 initial charge from wavefunction
 First call to EWALD:  gamma=   0.504
 Maximum number of real-space cells 3x 3x 3
 Maximum number of reciprocal cells 3x 3x 3

 FEWALD executed in parallel
    FEWALD:  cpu time    0.00: real time    0.00


----------------------------------------- Iteration    1(   1)  ---------------------------------------


    POTLOK:  cpu time    0.01: real time    0.01
    SETDIJ:  cpu time    0.79: real time    0.79
     EDDAV:  cpu time    1.61: real time    1.70
       DOS:  cpu time    0.01: real time    0.01
    CHARGE:  cpu time    0.03: real time    0.03
    MIXING:  cpu time    0.00: real time    0.00
    --------------------------------------------
      LOOP:  cpu time    2.46: real time    2.54

 eigenvalue-minimisations  : 10032
 total energy-change (2. order) :-0.2188605E+02  (-0.4131006E-04)
 number of electron      40.0000366 magnetization       2.5198501
 augmentation part       24.6409543 magnetization       2.4135895

 Broyden mixing:
  rms(total) = 0.68687E-02    rms(broyden)= 0.68683E-02
  rms(prec ) = 0.14486E-01
  weight for this iteration     100.00

 Free energy of the ion-electron system (eV)
  ---------------------------------------------------
  alpha Z        PSCENC =       187.88201244
  Ewald energy   TEWEN  =     -3756.46255369
  -Hartree energ DENC   =      -895.95887024
  -exchange      EXHF   =         0.00000000
  -V(xc)+E(xc)   XCENC  =       122.89678819
  PAW double counting   =      4574.76912329    -4849.44792063
  entropy T*S    EENTRO =        -0.00821951
  eigenvalues    EBANDS =       283.78824571
  atomic energy  EATOM  =      4310.65534852
  Solvation contrib.  Ediel  =         0.00000000
  ---------------------------------------------------
  free energy    TOTEN  =       -21.88604593 eV

  energy without entropy =      -21.87782642  energy(sigma->0) =      -21.88330609


--------------------------------------------------------------------------------------------------------




----------------------------------------- Iteration    1(   2)  ---------------------------------------


    POTLOK:  cpu time    0.01: real time    0.01
    SETDIJ:  cpu time    0.74: real time    0.74
     EDDAV:  cpu time    1.50: real time    1.50
       DOS:  cpu time    0.01: real time    0.01
    CHARGE:  cpu time    0.03: real time    0.03
    MIXING:  cpu time    0.00: real time    0.00
    --------------------------------------------
      LOOP:  cpu time    2.28: real time    2.29

 eigenvalue-minimisations  :  9636
 total energy-change (2. order) : 0.4333642E-04  (-0.4351523E-04)
 number of electron      40.0000366 magnetization       2.5172706
 augmentation part       24.6556162 magnetization       2.4119446

 Broyden mixing:
  rms(total) = 0.43987E-02    rms(broyden)= 0.43978E-02
  rms(prec ) = 0.89530E-02
  weight for this iteration     100.00

 eigenvalues of (default mixing * dielectric matrix)
  average eigenvalue GAMMA=   0.5595
  0.5595

 Free energy of the ion-electron system (eV)
  ---------------------------------------------------
  alpha Z        PSCENC =       187.88201244
  Ewald energy   TEWEN  =     -3756.46255369
  -Hartree energ DENC   =      -895.61661929
  -exchange      EXHF   =         0.00000000
  -V(xc)+E(xc)   XCENC  =       122.87941334
  PAW double counting   =      4574.58850855    -4849.13974596
  entropy T*S    EENTRO =        -0.00827959
  eigenvalues    EBANDS =       283.33591311
  atomic energy  EATOM  =      4310.65534852
  Solvation contrib.  Ediel  =         0.00000000
  ---------------------------------------------------
  free energy    TOTEN  =       -21.88600260 eV

  energy without entropy =      -21.87772301  energy(sigma->0) =      -21.88324273


--------------------------------------------------------------------------------------------------------




----------------------------------------- Iteration    1(   3)  ---------------------------------------


    POTLOK:  cpu time    0.01: real time    0.01
    SETDIJ:  cpu time    0.74: real time    0.73
     EDDAV:  cpu time    1.16: real time    1.16
       DOS:  cpu time    0.01: real time    0.01
    CHARGE:  cpu time    0.03: real time    0.03
    MIXING:  cpu time    0.00: real time    0.00
    --------------------------------------------
      LOOP:  cpu time    1.94: real time    1.94

 eigenvalue-minimisations  :  7092
 total energy-change (2. order) : 0.2370119E-04  (-0.5809281E-05)
 number of electron      40.0000366 magnetization       2.5170378
 augmentation part       24.6503380 magnetization       2.4112958

 Broyden mixing:
  rms(total) = 0.58337E-03    rms(broyden)= 0.58304E-03
  rms(prec ) = 0.68174E-03
  weight for this iteration     100.00

 eigenvalues of (default mixing * dielectric matrix)
  average eigenvalue GAMMA=   0.6558
  0.6957  0.6158

 Free energy of the ion-electron system (eV)
  ---------------------------------------------------
  alpha Z        PSCENC =       187.88201244
  Ewald energy   TEWEN  =     -3756.46255369
  -Hartree energ DENC   =      -895.74616958
  -exchange      EXHF   =         0.00000000
  -V(xc)+E(xc)   XCENC  =       122.88550716
  PAW double counting   =      4574.67257539    -4849.26531167
  entropy T*S    EENTRO =        -0.00827516
  eigenvalues    EBANDS =       283.50088770
  atomic energy  EATOM  =      4310.65534852
  Solvation contrib.  Ediel  =         0.00000000
  ---------------------------------------------------
  free energy    TOTEN  =       -21.88597889 eV

  energy without entropy =      -21.87770373  energy(sigma->0) =      -21.88322051


--------------------------------------------------------------------------------------------------------




----------------------------------------- Iteration    1(   4)  ---------------------------------------


    POTLOK:  cpu time    0.01: real time    0.01
    SETDIJ:  cpu time    0.73: real time    0.73
     EDDAV:  cpu time    0.84: real time    0.84
       DOS:  cpu time    0.01: real time    0.01
    --------------------------------------------
      LOOP:  cpu time    1.59: real time    1.59

 eigenvalue-minimisations  :  4272
 total energy-change (2. order) : 0.2022261E-06  (-0.1535421E-07)
 number of electron      40.0000366 magnetization       2.5170378
 augmentation part       24.6503380 magnetization       2.4112958

 Free energy of the ion-electron system (eV)
  ---------------------------------------------------
  alpha Z        PSCENC =       187.88201244
  Ewald energy   TEWEN  =     -3756.46255369
  -Hartree energ DENC   =      -895.75110655
  -exchange      EXHF   =         0.00000000
  -V(xc)+E(xc)   XCENC  =       122.88570664
  PAW double counting   =      4574.65780491    -4849.24902966
  entropy T*S    EENTRO =        -0.00827886
  eigenvalues    EBANDS =       283.50411756
  atomic energy  EATOM  =      4310.65534852
  Solvation contrib.  Ediel  =         0.00000000
  ---------------------------------------------------
  free energy    TOTEN  =       -21.88597869 eV

  energy without entropy =      -21.87769983  energy(sigma->0) =      -21.88321907


--------------------------------------------------------------------------------------------------------




 average (electrostatic) potential at core
  the test charge radii are     0.9791
  (the norm of the test charge is              1.0000)
       1 -81.9786       2 -81.9786       3 -81.9786       4 -81.9786
 
 
 
 E-fermi :   9.4118     XC(G=0): -13.2685     alpha+bet :-16.4964


 spin component 1

 k-point     1 :       0.0417    0.0417    0.0417
  band No.  band energies     occupation 
      1       0.4496      1.00000
      2       4.7747      1.00000
      3       4.7747      1.00000
      4       4.7747      1.00000
      5       5.2208      1.00000
      6       5.2208      1.00000
      7       5.2208      1.00000
      8       6.9472      1.00000
      9       6.9805      1.00000
     10       6.9805      1.00000
     11       8.1429      1.00000
     12       8.1429      1.00000
     13       8.8169      1.00011
     14       8.8169      1.00011
     15       8.8169      1.00011
     16       8.8326      1.00016
     17       8.8326      1.00016
     18       8.8326      1.00016
     19       8.9159      1.00127
     20       8.9159      1.00127
     21       8.9159      1.00127
     22      11.8707     -0.00000
     23      11.8707     -0.00000
     24      11.8707     -0.00000
     25      18.8257      0.00000
     26      18.8257      0.00000
     27      18.8257      0.00000
     28      23.7800      0.00000
     29      23.7800      0.00000
     30      23.7800      0.00000
     31      24.3534      0.00000
     32      24.3534      0.00000
     33      24.3534      0.00000
     34      29.4716      0.00000
     35      29.4716      0.00000
     36      29.4716      0.00000

 k-point     2 :       0.1250    0.0417    0.0417
  band No.  band energies     occupation 
      1       0.6303      1.00000
      2       4.7849      1.00000
      3       4.8672      1.00000
      4       4.8672      1.00000
      5       5.2753      1.00000
      6       5.2812      1.00000
      7       5.2812      1.00000
      8       6.8876      1.00000
      9       7.0264      1.00000
     10       7.0293      1.00000
     11       8.0845      1.00000
     12       8.1676      1.00000
     13       8.4647      1.00000
     14       8.4647      1.00000
     15       8.7130      1.00000
     16       8.7602      1.00002
     17       8.7602      1.00002
     18       8.7634      1.00002
     19       8.8729      1.00046
     20       8.9102      1.00112
     21       8.9102      1.00112
     22      11.0279     -0.00000
     23      12.3705     -0.00000
     24      12.3705     -0.00000
     25      18.8764      0.00000
     26      18.8764      0.00000
     27      20.0037      0.00000
     28      22.6600      0.00000
     29      22.6600      0.00000
     30      24.0443      0.00000
     31      24.0712      0.00000
     32      24.0712      0.00000
     33      24.6305      0.00000
     34      29.5389      0.00000
     35      30.4303      0.00000
     36      30.4303      0.00000

 k-point     3 :       0.2083    0.0417    0.0417
  band No.  band energies     occupation 
      1       0.9865      1.00000
      2       4.7710      1.00000
      3       5.0391      1.00000
      4       5.0391      1.00000
      5       5.3816      1.00000
      6       5.4029      1.00000
      7       5.4029      1.00000
      8       6.7660      1.00000
      9       7.1236      1.00000
     10       7.1257      1.00000
     11       7.9615      1.00000
     12       7.9615      1.00000
     13       7.9756      1.00000
     14       8.2154      1.00000
     15       8.5047      1.00000
     16       8.6126      1.00000
     17       8.6183      1.00000
     18       8.6183      1.00000
     19       8.8133      1.00010
     20       8.9077      1.00106
     21       8.9077      1.00106
     22       9.9085     -0.00125
     23      13.1633     -0.00000
     24      13.1633     -0.00000
     25      18.9802      0.00000
     26      18.9802      0.00000
     27      21.3730      0.00000
     28      21.3730      0.00000
     29      21.8277      0.00000
     30      23.2606      0.00000
     31      23.2606      0.00000
     32      24.5586      0.00000
     33      25.1707      0.00000
     34      29.6776      0.00000
     35      31.5964      0.00000
     36      32.0272      0.00000

 k-point     4 :       0.2917    0.0417    0.0417
  band No.  band energies     occupation 
      1       1.5060      1.00000
      2       4.6508      1.00000
      3       5.2619      1.00000
      4       5.2619      1.00000
      5       5.5339      1.00000
      6       5.5864      1.00000
      7       5.5864      1.00000
      8       6.5957      1.00000
      9       7.2630      1.00000
     10       7.2671      1.00000
     11       7.4392      1.00000
     12       7.4392      1.00000
     13       7.8361      1.00000
     14       8.1673      1.00000
     15       8.2830      1.00000
     16       8.4021      1.00000
     17       8.4281      1.00000
     18       8.4281      1.00000
     19       8.7396      1.00001
     20       8.9070      1.00104
     21       8.9070      1.00104
     22       8.9541      1.00282
     23      14.1151     -0.00000
     24      14.1151     -0.00000
     25      19.1187      0.00000
     26      19.1187      0.00000
     27      20.1057      0.00000
     28      20.1057      0.00000
     29      22.3299      0.00000
     30      22.3299      0.00000
     31      23.9459      0.00000
     32      25.3053      0.00000
     33      25.9496      0.00000
     34      29.8957      0.00000
     35      30.5881      0.00000
     36      32.3940      0.00000

 k-point     5 :       0.3750    0.0417    0.0417
  band No.  band energies     occupation 
      1       2.1656      1.00000
      2       4.3014      1.00000
      3       5.4859      1.00000
      4       5.4859      1.00000
      5       5.7234      1.00000
      6       5.8312      1.00000
      7       5.8312      1.00000
      8       6.3905      1.00000
      9       6.9497      1.00000
     10       6.9497      1.00000
     11       7.4161      1.00000
     12       7.4498      1.00000
     13       7.7197      1.00000
     14       7.7404      1.00000
     15       8.1594      1.00000
     16       8.2325      1.00000
     17       8.2325      1.00000
     18       8.3663      1.00000
     19       8.3891      1.00000
     20       8.6527      1.00000
     21       8.9068      1.00103
     22       8.9068      1.00103
     23      15.1676      0.00000
     24      15.1676      0.00000
     25      18.6647      0.00000
     26      18.6647      0.00000
     27      19.5369      0.00000
     28      19.5369      0.00000
     29      21.4926      0.00000
     30      21.4926      0.00000
     31      25.9686      0.00000
     32      26.4693      0.00000
     33      26.9377      0.00000
     34      29.4692      0.00000
     35      30.2078      0.00000
     36      30.8618      0.00000

 k-point     6 :       0.4583    0.0417    0.0417
  band No.  band energies     occupation 
      1       2.9204      1.00000
      2       3.6822      1.00000
      3       5.6349      1.00000
      4       5.6349      1.00000
      5       5.9387      1.00000
      6       6.1383      1.00000
      7       6.1383      1.00000
      8       6.1662      1.00000
      9       6.5148      1.00000
     10       6.5148      1.00000
     11       7.4604      1.00000
     12       7.4947      1.00000
     13       7.6666      1.00000
     14       7.7940      1.00000
     15       7.9079      1.00000
     16       8.0450      1.00000
     17       8.1011      1.00000
     18       8.1011      1.00000
     19       8.4598      1.00000
     20       8.5574      1.00000
     21       8.9068      1.00103
     22       8.9068      1.00103
     23      16.2868      0.00000
     24      16.2868      0.00000
     25      17.4888      0.00000
     26      17.4888      0.00000
     27      19.7612      0.00000
     28      19.7612      0.00000
     29      20.9050      0.00000
     30      20.9050      0.00000
     31      27.1596      0.00000
     32      28.1048      0.00000
     33      28.3055      0.00000
     34      28.5980      0.00000
     35      29.4222      0.00000
     36      30.5367      0.00000

 k-point     7 :       0.1250    0.1250    0.0417
  band No.  band energies     occupation 
      1       0.8090      1.00000
      2       4.8808      1.00000
      3       4.8808      1.00000
      4       4.9545      1.00000
      5       5.3337      1.00000
      6       5.3337      1.00000
      7       5.3391      1.00000
      8       6.8515      1.00000
      9       7.0523      1.00000
     10       7.0677      1.00000
     11       8.0706      1.00000
     12       8.1578      1.00000
     13       8.2366      1.00000
     14       8.3243      1.00000
     15       8.3243      1.00000
     16       8.6749      1.00000
     17       8.7133      1.00000
     18       8.7133      1.00000
     19       8.8622      1.00036
     20       8.8622      1.00036
     21       8.8711      1.00044
     22      11.5177     -0.00000
     23      11.5177     -0.00000
     24      12.7992     -0.00000
     25      18.9148      0.00000
     26      20.0831      0.00000
     27      20.0831      0.00000
     28      21.2412      0.00000
     29      22.9051      0.00000
     30      22.9051      0.00000
     31      24.3303      0.00000
     32      24.3303      0.00000
     33      24.8957      0.00000
     34      30.3603      0.00000
     35      30.5177      0.00000
     36      30.5177      0.00000

 k-point     8 :       0.2083    0.1250    0.0417
  band No.  band energies     occupation 
      1       1.1609      1.00000
      2       4.8737      1.00000
      3       5.0596      1.00000
      4       5.1167      1.00000
      5       5.4360      1.00000
      6       5.4512      1.00000
      7       5.4542      1.00000
      8       6.7492      1.00000
      9       7.1354      1.00000
     10       7.1434      1.00000
     11       7.8155      1.00000
     12       7.8315      1.00000
     13       7.9848      1.00000
     14       8.0698      1.00000
     15       8.2038      1.00000
     16       8.5462      1.00000
     17       8.5754      1.00000
     18       8.6015      1.00000
     19       8.7985      1.00006
     20       8.8378      1.00019
     21       8.8407      1.00020
     22      10.4171     -0.00000
     23      12.2488     -0.00000
     24      13.5204     -0.00000
     25      18.9216      0.00000
     26      19.9457      0.00000
     27      20.2363      0.00000
     28      21.6155      0.00000
     29      21.9133      0.00000
     30      23.3900      0.00000
     31      23.4944      0.00000
     32      24.8143      0.00000
     33      24.8376      0.00000
     34      30.3177      0.00000
     35      30.6975      0.00000
     36      31.1856      0.00000

 k-point     9 :       0.2917    0.1250    0.0417
  band No.  band energies     occupation 
      1       1.6738      1.00000
      2       4.7628      1.00000
      3       5.2932      1.00000
      4       5.3302      1.00000
      5       5.5823      1.00000
      6       5.6225      1.00000
      7       5.6277      1.00000
      8       6.5924      1.00000
      9       7.2420      1.00000
     10       7.2712      1.00000
     11       7.3072      1.00000
     12       7.3712      1.00000
     13       7.7311      1.00000
     14       7.8730      1.00000
     15       8.2851      1.00000
     16       8.3677      1.00000
     17       8.3756      1.00000
     18       8.4261      1.00000
     19       8.7046      1.00000
     20       8.8255      1.00014
     21       8.8264      1.00014
     22       9.4747      0.24793
     23      13.0922     -0.00000
     24      14.4177     -0.00000
     25      18.2660      0.00000
     26      19.4898      0.00000
     27      20.1323      0.00000
     28      20.6667      0.00000
     29      22.5521      0.00000
     30      23.7866      0.00000
     31      24.1060      0.00000
     32      24.3096      0.00000
     33      25.5874      0.00000
     34      29.1067      0.00000
     35      30.9801      0.00000
     36      31.0438      0.00000

 k-point    10 :       0.3750    0.1250    0.0417
  band No.  band energies     occupation 
      1       2.3240      1.00000
      2       4.4232      1.00000
      3       5.5330      1.00000
      4       5.5567      1.00000
      5       5.7640      1.00000
      6       5.8306      1.00000
      7       5.8609      1.00000
      8       6.3995      1.00000
      9       6.8412      1.00000
     10       6.9234      1.00000
     11       7.3145      1.00000
     12       7.4201      1.00000
     13       7.4465      1.00000
     14       7.8225      1.00000
     15       8.1281      1.00000
     16       8.1983      1.00000
     17       8.2351      1.00000
     18       8.3881      1.00000
     19       8.5206      1.00000
     20       8.8194      1.00012
     21       8.8212      1.00012
     22       8.8886      1.00068
     23      14.0031     -0.00000
     24      15.4190      0.00000
     25      17.1500      0.00000
     26      18.9570      0.00000
     27      19.7147      0.00000
     28      20.8454      0.00000
     29      21.7910      0.00000
     30      23.2382      0.00000
     31      24.7769      0.00000
     32      26.1402      0.00000
     33      26.8145      0.00000
     34      27.9254      0.00000
     35      29.7649      0.00000
     36      31.3840      0.00000

 k-point    11 :       0.4583    0.1250    0.0417
  band No.  band energies     occupation 
      1       3.0669      1.00000
      2       3.8156      1.00000
      3       5.7025      1.00000
      4       5.7144      1.00000
      5       5.9698      1.00000
      6       6.0802      1.00000
      7       6.1411      1.00000
      8       6.1867      1.00000
      9       6.4446      1.00000
     10       6.5225      1.00000
     11       7.2829      1.00000
     12       7.2958      1.00000
     13       7.6529      1.00000
     14       7.8837      1.00000
     15       7.9438      1.00000
     16       8.0837      1.00000
     17       8.0978      1.00000
     18       8.2091      1.00000
     19       8.5071      1.00000
     20       8.6476      1.00000
     21       8.8177      1.00011
     22       8.8185      1.00011
     23      14.9650      0.00000
     24      15.9262      0.00000
     25      16.6485      0.00000
     26      17.7483      0.00000
     27      20.1181      0.00000
     28      20.6237      0.00000
     29      21.8080      0.00000
     30      22.4297      0.00000
     31      25.7439      0.00000
     32      26.7982      0.00000
     33      27.3627      0.00000
     34      28.5351      0.00000
     35      29.0011      0.00000
     36      31.2392      0.00000

 k-point    12 :       0.2083    0.2083    0.0417
  band No.  band energies     occupation 
      1       1.5040      1.00000
      2       5.0661      1.00000
      3       5.0661      1.00000
      4       5.2596      1.00000
      5       5.5451      1.00000
      6       5.5451      1.00000
      7       5.5571      1.00000
      8       6.6879      1.00000
      9       7.1788      1.00000
     10       7.1883      1.00000
     11       7.5670      1.00000
     12       7.5670      1.00000
     13       7.5724      1.00000
     14       7.9516      1.00000
     15       8.2386      1.00000
     16       8.4250      1.00000
     17       8.5147      1.00000
     18       8.5147      1.00000
     19       8.7327      1.00001
     20       8.7327      1.00001
     21       8.7649      1.00002
     22      11.0971     -0.00000
     23      11.0971     -0.00000
     24      14.1521     -0.00000
     25      18.0879      0.00000
     26      19.4383      0.00000
     27      21.8422      0.00000
     28      21.8422      0.00000
     29      22.3215      0.00000
     30      22.3215      0.00000
     31      23.9685      0.00000
     32      23.9685      0.00000
     33      25.9311      0.00000
     34      28.9644      0.00000
     35      30.7909      0.00000
     36      30.9537      0.00000

 k-point    13 :       0.2917    0.2083    0.0417
  band No.  band energies     occupation 
      1       2.0029      1.00000
      2       4.9729      1.00000
      3       5.3199      1.00000
      4       5.4482      1.00000
      5       5.6792      1.00000
      6       5.7020      1.00000
      7       5.7086      1.00000
      8       6.5698      1.00000
      9       7.0931      1.00000
     10       7.2179      1.00000
     11       7.2299      1.00000
     12       7.2851      1.00000
     13       7.2991      1.00000
     14       7.8789      1.00000
     15       8.2763      1.00000
     16       8.3346      1.00000
     17       8.3426      1.00000
     18       8.3815      1.00000
     19       8.6120      1.00000
     20       8.6875      1.00000
     21       8.7104      1.00000
     22      10.0864     -0.00001
     23      11.8495     -0.00000
     24      14.9586      0.00000
     25      16.8266      0.00000
     26      19.6021      0.00000
     27      20.6622      0.00000
     28      22.3349      0.00000
     29      22.6017      0.00000
     30      23.1404      0.00000
     31      24.1053      0.00000
     32      24.8845      0.00000
     33      25.9777      0.00000
     34      27.6699      0.00000
     35      29.6182      0.00000
     36      31.6709      0.00000

 k-point    14 :       0.3750    0.2083    0.0417
  band No.  band energies     occupation 
      1       2.6332      1.00000
      2       4.6522      1.00000
      3       5.5888      1.00000
      4       5.6686      1.00000
      5       5.8447      1.00000
      6       5.8514      1.00000
      7       5.9209      1.00000
      8       6.4086      1.00000
      9       6.6731      1.00000
     10       6.8658      1.00000
     11       7.0894      1.00000
     12       7.2157      1.00000
     13       7.4580      1.00000
     14       7.8618      1.00000
     15       8.1058      1.00000
     16       8.1263      1.00000
     17       8.2079      1.00000
     18       8.4389      1.00000
     19       8.4909      1.00000
     20       8.6689      1.00000
     21       8.6794      1.00000
     22       9.3668      0.68541
     23      12.6574     -0.00000
     24      15.4242      0.00000
     25      16.1298      0.00000
     26      19.4041      0.00000
     27      19.9332      0.00000
     28      21.7851      0.00000
     29      23.2134      0.00000
     30      23.3946      0.00000
     31      25.1948      0.00000
     32      25.3162      0.00000
     33      26.4569      0.00000
     34      26.9534      0.00000
     35      28.3729      0.00000
     36      33.1483      0.00000

 k-point    15 :       0.4583    0.2083    0.0417
  band No.  band energies     occupation 
      1       3.3499      1.00000
      2       4.0692      1.00000
      3       5.8043      1.00000
      4       5.8642      1.00000
      5       5.9792      1.00000
      6       6.0303      1.00000
      7       6.1323      1.00000
      8       6.2232      1.00000
      9       6.3566      1.00000
     10       6.5271      1.00000
     11       7.0603      1.00000
     12       7.1397      1.00000
     13       7.6508      1.00000
     14       7.8700      1.00000
     15       7.9808      1.00000
     16       8.0368      1.00000
     17       8.0684      1.00000
     18       8.2041      1.00000
     19       8.6628      1.00000
     20       8.6656      1.00000
     21       8.6782      1.00000
     22       8.9368      1.00199
     23      13.5278     -0.00000
     24      14.4749     -0.00000
     25      17.0723      0.00000
     26      18.2011      0.00000
     27      20.4079      0.00000
     28      21.0331      0.00000
     29      23.7815      0.00000
     30      24.3096      0.00000
     31      24.5137      0.00000
     32      25.3341      0.00000
     33      26.1633      0.00000
     34      27.2204      0.00000
     35      29.3887      0.00000
     36      31.8709      0.00000

 k-point    16 :       0.2917    0.2917    0.0417
  band No.  band energies     occupation 
      1       2.4790      1.00000
      2       5.2509      1.00000
      3       5.2509      1.00000
      4       5.5876      1.00000
      5       5.8245      1.00000
      6       5.8245      1.00000
      7       5.8274      1.00000
      8       6.5083      1.00000
      9       6.8861      1.00000
     10       6.8861      1.00000
     11       7.0212      1.00000
     12       7.1952      1.00000
     13       7.3721      1.00000
     14       7.8316      1.00000
     15       8.1474      1.00000
     16       8.2552      1.00000
     17       8.2552      1.00000
     18       8.4876      1.00000
     19       8.5221      1.00000
     20       8.5221      1.00000
     21       8.6056      1.00000
     22      10.7443     -0.00000
     23      10.7443     -0.00000
     24      15.2308      0.00000
     25      15.9512      0.00000
     26      19.8669      0.00000
     27      21.2834      0.00000
     28      21.2834      0.00000
     29      23.3116      0.00000
     30      23.3116      0.00000
     31      24.9561      0.00000
     32      24.9561      0.00000
     33      26.3302      0.00000
     34      27.3861      0.00000
     35      28.2820      0.00000
     36      31.1868      0.00000

 k-point    17 :       0.3750    0.2917    0.0417
  band No.  band energies     occupation 
      1       3.0759      1.00000
      2       4.9555      1.00000
      3       5.5452      1.00000
      4       5.7319      1.00000
      5       5.9631      1.00000
      6       5.9647      1.00000
      7       6.0129      1.00000
      8       6.4037      1.00000
      9       6.5482      1.00000
     10       6.7714      1.00000
     11       6.8052      1.00000
     12       7.1409      1.00000
     13       7.4939      1.00000
     14       7.8164      1.00000
     15       8.0194      1.00000
     16       8.0594      1.00000
     17       8.1174      1.00000
     18       8.3323      1.00000
     19       8.4783      1.00000
     20       8.5304      1.00000
     21       8.6970      1.00000
     22       9.9042     -0.00137
     23      11.4554     -0.00000
     24      14.1622     -0.00000
     25      16.7234      0.00000
     26      20.0211      0.00000
     27      20.2614      0.00000
     28      22.0514      0.00000
     29      22.3478      0.00000
     30      24.0749      0.00000
     31      25.0953      0.00000
     32      25.4224      0.00000
     33      27.0547      0.00000
     34      27.3178      0.00000
     35      27.4635      0.00000
     36      32.2811      0.00000

 k-point    18 :       0.4583    0.2917    0.0417
  band No.  band energies     occupation 
      1       3.7473      1.00000
      2       4.4143      1.00000
      3       5.7799      1.00000
      4       5.8464      1.00000
      5       6.0656      1.00000
      6       6.1166      1.00000
      7       6.1784      1.00000
      8       6.2678      1.00000
      9       6.3357      1.00000
     10       6.5175      1.00000
     11       6.8787      1.00000
     12       7.0212      1.00000
     13       7.6532      1.00000
     14       7.8458      1.00000
     15       7.9176      1.00000
     16       7.9483      1.00000
     17       7.9880      1.00000
     18       8.1146      1.00000
     19       8.4702      1.00000
     20       8.4870      1.00000
     21       8.9668      1.00361
     22       9.3391      0.78628
     23      12.2423     -0.00000
     24      13.1362     -0.00000
     25      17.7278      0.00000
     26      18.8333      0.00000
     27      20.7998      0.00000
     28      21.4957      0.00000
     29      22.9506      0.00000
     30      23.9676      0.00000
     31      24.9474      0.00000
     32      25.9418      0.00000
     33      26.0561      0.00000
     34      26.7938      0.00000
     35      29.8261      0.00000
     36      32.4008      0.00000

 k-point    19 :       0.3750    0.3750    0.0417
  band No.  band energies     occupation 
      1       3.6216      1.00000
      2       5.2758      1.00000
      3       5.2758      1.00000
      4       5.7317      1.00000
      5       6.1199      1.00000
      6       6.1199      1.00000
      7       6.1363      1.00000
      8       6.3713      1.00000
      9       6.5829      1.00000
     10       6.5829      1.00000
     11       6.6413      1.00000
     12       7.0615      1.00000
     13       7.5561      1.00000
     14       7.7864      1.00000
     15       7.9020      1.00000
     16       7.9625      1.00000
     17       7.9625      1.00000
     18       8.2693      1.00000
     19       8.2693      1.00000
     20       8.4032      1.00000
     21       8.9765      1.00433
     22      10.5011     -0.00000
     23      10.5011     -0.00000
     24      12.9900     -0.00000
     25      17.5674      0.00000
     26      20.7204      0.00000
     27      20.7896      0.00000
     28      20.7896      0.00000
     29      23.0168      0.00000
     30      23.0168      0.00000
     31      23.8463      0.00000
     32      25.8488      0.00000
     33      27.8372      0.00000
     34      27.8372      0.00000
     35      29.1880      0.00000
     36      31.7430      0.00000

 k-point    20 :       0.4583    0.3750    0.0417
  band No.  band energies     occupation 
      1       4.2209      1.00000
      2       4.8022      1.00000
      3       5.5359      1.00000
      4       5.6814      1.00000
      5       6.2209      1.00000
      6       6.2865      1.00000
      7       6.2949      1.00000
      8       6.3079      1.00000
      9       6.4272      1.00000
     10       6.4850      1.00000
     11       6.7439      1.00000
     12       6.9277      1.00000
     13       7.6434      1.00000
     14       7.7855      1.00000
     15       7.8291      1.00000
     16       7.8567      1.00000
     17       7.8737      1.00000
     18       8.0556      1.00000
     19       8.2680      1.00000
     20       8.3138      1.00000
     21       9.3318      0.81046
     22       9.8127     -0.00789
     23      11.1867     -0.00000
     24      12.0032     -0.00000
     25      18.5406      0.00000
     26      19.6181      0.00000
     27      21.3270      0.00000
     28      21.6903      0.00000
     29      22.0928      0.00000
     30      22.7110      0.00000
     31      23.8241      0.00000
     32      24.7697      0.00000
     33      28.4885      0.00000
     34      29.1765      0.00000
     35      30.3747      0.00000
     36      32.9788      0.00000

 k-point    21 :       0.4583    0.4583    0.0417
  band No.  band energies     occupation 
      1       4.7156      1.00000
      2       5.1691      1.00000
      3       5.1691      1.00000
      4       5.4640      1.00000
      5       6.3291      1.00000
      6       6.3291      1.00000
      7       6.3309      1.00000
      8       6.4201      1.00000
      9       6.4879      1.00000
     10       6.6310      1.00000
     11       6.6310      1.00000
     12       6.8106      1.00000
     13       7.6387      1.00000
     14       7.7168      1.00000
     15       7.7168      1.00000
     16       7.7292      1.00000
     17       7.9356      1.00000
     18       8.0795      1.00000
     19       8.0795      1.00000
     20       8.1712      1.00000
     21       9.7850     -0.01203
     22      10.3802     -0.00000
     23      10.3802     -0.00000
     24      11.0927     -0.00000
     25      19.4813      0.00000
     26      20.5334      0.00000
     27      20.5334      0.00000
     28      21.5660      0.00000
     29      22.0038      0.00000
     30      22.8371      0.00000
     31      22.8371      0.00000
     32      23.7308      0.00000
     33      31.0336      0.00000
     34      31.0336      0.00000
     35      31.2775      0.00000
     36      32.5650      0.00000

 k-point    22 :       0.1250    0.1250    0.1250
  band No.  band energies     occupation 
      1       0.9852      1.00000
      2       4.9697      1.00000
      3       4.9697      1.00000
      4       4.9697      1.00000
      5       5.3902      1.00000
      6       5.3902      1.00000
      7       5.3902      1.00000
      8       6.8222      1.00000
      9       7.0853      1.00000
     10       7.0853      1.00000
     11       8.1042      1.00000
     12       8.1042      1.00000
     13       8.1042      1.00000
     14       8.1071      1.00000
     15       8.1071      1.00000
     16       8.5584      1.00000
     17       8.5584      1.00000
     18       8.5584      1.00000
     19       8.8878      1.00066
     20       8.8878      1.00066
     21       8.8878      1.00066
     22      11.9133     -0.00000
     23      11.9133     -0.00000
     24      11.9133     -0.00000
     25      20.1368      0.00000
     26      20.1368      0.00000
     27      20.1368      0.00000
     28      21.4946      0.00000
     29      21.4946      0.00000
     30      21.4946      0.00000
     31      25.1606      0.00000
     32      25.1606      0.00000
     33      25.1606      0.00000
     34      30.2331      0.00000
     35      30.4307      0.00000
     36      30.4307      0.00000

 k-point    23 :       0.2083    0.1250    0.1250
  band No.  band energies     occupation 
      1       1.3322      1.00000
      2       4.9657      1.00000
      3       5.1348      1.00000
      4       5.1348      1.00000
      5       5.4903      1.00000
      6       5.5030      1.00000
      7       5.5030      1.00000
      8       6.7362      1.00000
      9       7.1463      1.00000
     10       7.1523      1.00000
     11       7.7017      1.00000
     12       7.7017      1.00000
     13       7.8529      1.00000
     14       8.0189      1.00000
     15       8.1767      1.00000
     16       8.3846      1.00000
     17       8.4459      1.00000
     18       8.4459      1.00000
     19       8.8544      1.00029
     20       8.8544      1.00029
     21       8.8732      1.00047
     22      10.7787     -0.00000
     23      12.5575     -0.00000
     24      12.5575     -0.00000
     25      19.8224      0.00000
     26      19.8224      0.00000
     27      20.5800      0.00000
     28      20.5800      0.00000
     29      21.6780      0.00000
     30      22.2750      0.00000
     31      25.0546      0.00000
     32      25.0546      0.00000
     33      25.6792      0.00000
     34      28.8721      0.00000
     35      30.5786      0.00000
     36      31.2673      0.00000

 k-point    24 :       0.2917    0.1250    0.1250
  band No.  band energies     occupation 
      1       1.8371      1.00000
      2       4.8593      1.00000
      3       5.3515      1.00000
      4       5.3515      1.00000
      5       5.6338      1.00000
      6       5.6666      1.00000
      7       5.6666      1.00000
      8       6.5950      1.00000
      9       7.2333      1.00000
     10       7.2541      1.00000
     11       7.2584      1.00000
     12       7.2584      1.00000
     13       7.5329      1.00000
     14       7.9316      1.00000
     15       8.1805      1.00000
     16       8.2728      1.00000
     17       8.3119      1.00000
     18       8.3119      1.00000
     19       8.8123      1.00009
     20       8.8123      1.00009
     21       8.8208      1.00012
     22       9.7678     -0.01522
     23      13.3343     -0.00000
     24      13.3343     -0.00000
     25      18.6291      0.00000
     26      18.6291      0.00000
     27      20.7577      0.00000
     28      20.7577      0.00000
     29      22.4564      0.00000
     30      24.2966      0.00000
     31      24.3171      0.00000
     32      24.3171      0.00000
     33      26.4315      0.00000
     34      27.5682      0.00000
     35      30.8204      0.00000
     36      32.7185      0.00000

 k-point    25 :       0.3750    0.1250    0.1250
  band No.  band energies     occupation 
      1       2.4759      1.00000
[...]
      4       5.3002      1.00000
      5       7.2348      1.00000
      6       7.2348      1.00000
      7       7.2348      1.00000
      8       7.7050      1.00000
      9       7.7050      1.00000
     10       7.7786      1.00000
     11       7.8522      1.00000
     12       7.8522      1.00000
     13       7.8522      1.00000
     14       7.8986      1.00000
     15       7.8986      1.00000
     16       7.8986      1.00000
     17       9.3349      0.80052
     18       9.3349      0.80051
     19       9.5807     -0.00049
     20       9.5807     -0.00049
     21       9.5807     -0.00050
     22      10.9916     -0.00000
     23      10.9916     -0.00000
     24      10.9916     -0.00000
     25      16.0589      0.00000
     26      16.0589      0.00000
     27      16.0589      0.00000
     28      18.4306      0.00000
     29      28.8037      0.00000
     30      28.8037      0.00000
     31      28.8037      0.00000
     32      31.1277      0.00000
     33      31.1277      0.00000
     34      31.1277      0.00000
     35      31.9823      0.00000
     36      32.3041      0.00000

 k-point    54 :       0.4583    0.3750    0.3750
  band No.  band energies     occupation 
      1       4.7356      1.00000
      2       5.0193      1.00000
      3       5.2685      1.00000
      4       5.2685      1.00000
      5       7.3271      1.00000
      6       7.3271      1.00000
      7       7.4597      1.00000
      8       7.6201      1.00000
      9       7.7004      1.00000
     10       7.7507      1.00000
     11       7.7845      1.00000
     12       7.7845      1.00000
     13       7.9986      1.00000
     14       8.0100      1.00000
     15       8.0825      1.00000
     16       8.0825      1.00000
     17       9.4742      0.24965
     18       9.5218      0.10381
     19       9.5486      0.04587
     20       9.5486      0.04587
     21       9.5581      0.02968
     22      10.1109     -0.00000
     23      10.9884     -0.00000
     24      10.9884     -0.00000
     25      15.6256      0.00000
     26      15.6256      0.00000
     27      16.6555      0.00000
     28      17.4528      0.00000
     29      29.2689      0.00000
     30      29.2689      0.00000
     31      30.5480      0.00000
     32      30.9499      0.00000
     33      30.9499      0.00000
     34      31.5135      0.00000
     35      32.0505      0.00000
     36      33.1373      0.00000

 k-point    55 :       0.4583    0.4583    0.3750
  band No.  band energies     occupation 
      1       4.8949      1.00000
      2       5.0706      1.00000
      3       5.0706      1.00000
      4       5.1520      1.00000
      5       7.4540      1.00000
      6       7.5003      1.00000
      7       7.5003      1.00000
      8       7.6068      1.00000
      9       7.6577      1.00000
     10       7.6940      1.00000
     11       7.6940      1.00000
     12       7.7052      1.00000
     13       8.2995      1.00000
     14       8.2995      1.00000
     15       8.3126      1.00000
     16       8.3163      1.00000
     17       9.4437      0.36693
     18       9.5247      0.09663
     19       9.5247      0.09663
     20       9.5296      0.08511
     21       9.7445     -0.02018
     22      10.2428     -0.00000
     23      10.2428     -0.00000
     24      10.5645     -0.00000
     25      15.5945      0.00000
     26      15.9606      0.00000
     27      15.9606      0.00000
     28      16.5871      0.00000
     29      29.9725      0.00000
     30      30.4973      0.00000
     31      30.4973      0.00000
     32      31.1932      0.00000
     33      32.3630      0.00000
     34      32.3630      0.00000
     35      32.7345      0.00000
     36      32.8784      0.00000

 k-point    56 :       0.4583    0.4583    0.4583
  band No.  band energies     occupation 
      1       4.9455      1.00000
      2       5.0298      1.00000
      3       5.0298      1.00000
      4       5.0298      1.00000
      5       7.5668      1.00000
      6       7.5668      1.00000
      7       7.5668      1.00000
      8       7.6176      1.00000
      9       7.6176      1.00000
     10       7.6339      1.00000
     11       7.6339      1.00000
     12       7.6339      1.00000
     13       8.7084      1.00000
     14       8.7084      1.00000
     15       8.7084      1.00000
     16       8.8126      1.00010
     17       9.5367      0.06942
     18       9.5367      0.06942
     19       9.5660      0.01783
     20       9.5660      0.01783
     21       9.5660      0.01783
     22       9.9321     -0.00073
     23       9.9321     -0.00073
     24       9.9321     -0.00073
     25      15.5639      0.00000
     26      15.5639      0.00000
     27      15.5639      0.00000
     28      15.9135      0.00000
     29      31.1927      0.00000
     30      31.1927      0.00000
     31      31.1927      0.00000
     32      31.5492      0.00000
     33      33.5684      0.00000
     34      33.5684      0.00000
     35      33.5684      0.00000
     36      33.6190      0.00000


--------------------------------------------------------------------------------------------------------


 soft charge-density along one line, spin component           1
         0         1         2         3         4         5         6         7         8         9
 total charge-density along one line
 
 soft charge-density along one line, spin component           2
         0         1         2         3         4         5         6         7         8         9
 total charge-density along one line
 
 pseudopotential strength for first ion, spin component:           1
 -0.581  -0.000  -0.000   0.000  -0.000  -1.258  -0.000  -0.000
 -0.000  -0.581   0.000  -0.000   0.000  -0.000  -1.258   0.000
 -0.000   0.000  -0.458  -0.000  -0.000  -0.000   0.000  -1.141
  0.000  -0.000  -0.000  -0.581  -0.000   0.000  -0.000  -0.000
 -0.000   0.000  -0.000  -0.000  -0.458  -0.000   0.000  -0.000
 -1.258  -0.000  -0.000   0.000  -0.000  -1.864  -0.000  -0.000
 -0.000  -1.258   0.000  -0.000   0.000  -0.000  -1.864   0.000
 -0.000   0.000  -1.141  -0.000  -0.000  -0.000   0.000  -1.752
  0.000  -0.000  -0.000  -1.258  -0.000   0.000  -0.000  -0.000
 -0.000   0.000  -0.000  -0.000  -1.141  -0.000   0.000  -0.000
  0.000   0.000   0.000   0.000  -0.000   0.000   0.000   0.000
  0.000   0.000   0.000   0.000  -0.000   0.000   0.000   0.000
  0.000  -0.000  -0.000   0.000  -0.000   0.000  -0.000  -0.000
  0.000   0.000  -0.000  -0.000  -0.000   0.000   0.000  -0.000
 -0.000   0.000  -0.000  -0.000  -0.000  -0.000   0.000   0.000
  0.000  -0.000  -0.000   0.000  -0.000   0.000  -0.000  -0.000
  0.000   0.000  -0.000  -0.000   0.000   0.000   0.000  -0.000
 -0.000   0.000  -0.000  -0.000  -0.000  -0.000   0.000   0.000
 pseudopotential strength for first ion, spin component:           2
  0.076  -0.000   0.000  -0.000  -0.000  -0.633  -0.000   0.000
 -0.000   0.076  -0.000  -0.000   0.000  -0.000  -0.633  -0.000
  0.000  -0.000   0.007   0.000  -0.000   0.000  -0.000  -0.697
 -0.000  -0.000   0.000   0.076   0.000  -0.000  -0.000   0.000
 -0.000   0.000  -0.000   0.000   0.007  -0.000   0.000  -0.000
 -0.633  -0.000   0.000  -0.000  -0.000  -1.268  -0.000   0.000
 -0.000  -0.633  -0.000  -0.000   0.000  -0.000  -1.268  -0.000
  0.000  -0.000  -0.697   0.000  -0.000   0.000  -0.000  -1.329
 -0.000  -0.000   0.000  -0.633   0.000  -0.000  -0.000   0.000
 -0.000   0.000  -0.000   0.000  -0.697  -0.000   0.000  -0.000
  0.000   0.000  -0.000  -0.000   0.000   0.000   0.000  -0.000
  0.000   0.000  -0.000  -0.000   0.000   0.000   0.000  -0.000
  0.000  -0.000  -0.000   0.000  -0.000   0.000  -0.000  -0.000
  0.000   0.000  -0.000  -0.000   0.000   0.000   0.000  -0.000
 -0.000   0.000  -0.000  -0.000  -0.000  -0.000   0.000   0.000
  0.000  -0.000  -0.000   0.000  -0.000   0.000  -0.000  -0.000
  0.000   0.000  -0.000   0.000   0.000   0.000   0.000  -0.000
 -0.000   0.000  -0.000  -0.000  -0.000  -0.000   0.000   0.000
 total augmentation occupancy for first ion, spin component:           1
  2.740  -0.000   0.000  -0.000   0.000  -1.256  -0.000   0.000  -0.000  -0.000   0.000  -0.000  -0.000   0.000  -0.000   0.000
 -0.000   2.740  -0.000  -0.000  -0.000  -0.000  -1.256  -0.000  -0.000  -0.000  -0.000   0.000   0.000   0.000   0.000  -0.000
  0.000   0.000   3.557  -0.000  -0.000   0.000  -0.000  -1.615  -0.000   0.000   0.000  -0.000  -0.000  -0.000  -0.000  -0.000
 -0.000  -0.000   0.000   2.740   0.000  -0.000   0.000  -0.000  -1.256   0.000  -0.000  -0.000  -0.000   0.000   0.000  -0.000
  0.000  -0.000   0.000  -0.000   3.557   0.000   0.000   0.000  -0.000  -1.615   0.000   0.000   0.000   0.000   0.000   0.000
 -1.256   0.000   0.000  -0.000   0.000   1.473   0.000   0.000   0.000  -0.000   0.000  -0.000   0.000   0.000  -0.000   0.000
 -0.000  -1.256  -0.000   0.000   0.000   0.000   1.473   0.000   0.000   0.000   0.000   0.000  -0.000   0.000  -0.000  -0.000
  0.000  -0.000  -1.615  -0.000   0.000  -0.000  -0.000   1.508   0.000  -0.000  -0.000   0.000  -0.000   0.000   0.000   0.000
 -0.000  -0.000   0.000  -1.256  -0.000   0.000   0.000   0.000   1.473   0.000  -0.000  -0.000   0.000  -0.000  -0.000   0.000
 -0.000  -0.000   0.000   0.000  -1.615   0.000   0.000   0.000   0.000   1.508  -0.000   0.000  -0.000  -0.000   0.000   0.000
  0.000  -0.000   0.000  -0.000   0.000   0.000  -0.000  -0.000  -0.000  -0.000   2.318  -0.324   0.000  -0.000   0.000  -0.000
 -0.000   0.000   0.000  -0.000  -0.000  -0.000  -0.000   0.000  -0.000   0.000  -0.324   0.053   0.000   0.000  -0.000  -0.000
 -0.000   0.000   0.000   0.000  -0.000   0.000   0.000  -0.000   0.000  -0.000   0.000   0.000   0.306  -0.000  -0.000  -0.033
 -0.000   0.000   0.000  -0.000  -0.000   0.000   0.000  -0.000   0.000  -0.000   0.000  -0.000  -0.000   0.306  -0.000   0.000
  0.000  -0.000   0.000  -0.000  -0.000   0.000  -0.000  -0.000   0.000   0.000   0.000   0.000  -0.000  -0.000   0.306  -0.000
 -0.000   0.000   0.000  -0.000   0.000  -0.000  -0.000  -0.000   0.000   0.000   0.000   0.000  -0.033   0.000  -0.000   0.004
 -0.000   0.000  -0.000  -0.000   0.000  -0.000   0.000   0.000  -0.000  -0.000   0.000  -0.000  -0.000  -0.033  -0.000   0.000
  0.000   0.000   0.000  -0.000   0.000   0.000   0.000   0.000  -0.000   0.000   0.000   0.000   0.000   0.000  -0.033   0.000
 total augmentation occupancy for first ion, spin component:           2
  1.083  -0.000  -0.000  -0.000  -0.000  -0.537   0.000   0.000   0.000  -0.000   0.000   0.000  -0.000  -0.000  -0.000   0.000
  0.000   1.083  -0.000  -0.000   0.000  -0.000  -0.537  -0.000   0.000  -0.000   0.000  -0.000   0.000  -0.000   0.000  -0.000
 -0.000   0.000   0.559   0.000  -0.000   0.000  -0.000  -0.281   0.000  -0.000   0.000   0.000  -0.000   0.000  -0.000   0.000
  0.000  -0.000   0.000   1.083   0.000  -0.000   0.000  -0.000  -0.537   0.000  -0.000  -0.000  -0.000   0.000   0.000  -0.000
  0.000   0.000   0.000   0.000   0.559   0.000  -0.000   0.000   0.000  -0.281   0.000   0.000   0.000  -0.000  -0.000  -0.000
 -0.537  -0.000   0.000  -0.000   0.000   0.175  -0.000   0.000  -0.000  -0.000   0.000  -0.000   0.000   0.000   0.000  -0.000
  0.000  -0.537   0.000   0.000   0.000  -0.000   0.175   0.000  -0.000   0.000  -0.000   0.000   0.000   0.000   0.000  -0.000
  0.000  -0.000  -0.281  -0.000   0.000   0.000  -0.000   0.082   0.000  -0.000   0.000  -0.000  -0.000  -0.000  -0.000   0.000
  0.000   0.000  -0.000  -0.537   0.000   0.000  -0.000   0.000   0.175   0.000   0.000  -0.000  -0.000  -0.000  -0.000   0.000
  0.000  -0.000  -0.000   0.000  -0.281  -0.000   0.000  -0.000  -0.000   0.082  -0.000   0.000   0.000   0.000   0.000   0.000
  0.000   0.000   0.000   0.000   0.000  -0.000  -0.000   0.000   0.000  -0.000  -0.134   0.044  -0.000   0.000   0.000   0.000
 -0.000  -0.000  -0.000  -0.000   0.000  -0.000  -0.000  -0.000   0.000   0.000   0.044  -0.009   0.000  -0.000   0.000   0.000
  0.000   0.000  -0.000   0.000  -0.000   0.000   0.000  -0.000   0.000   0.000   0.000  -0.000  -0.018  -0.000  -0.000   0.003
  0.000   0.000   0.000  -0.000  -0.000   0.000  -0.000  -0.000   0.000  -0.000   0.000   0.000  -0.000  -0.018  -0.000  -0.000
 -0.000   0.000  -0.000  -0.000  -0.000   0.000   0.000   0.000  -0.000  -0.000   0.000  -0.000  -0.000   0.000  -0.018  -0.000
  0.000  -0.000  -0.000  -0.000   0.000  -0.000   0.000   0.000  -0.000   0.000   0.000   0.000   0.003   0.000  -0.000  -0.000
 -0.000  -0.000   0.000   0.000   0.000   0.000   0.000   0.000   0.000  -0.000   0.000   0.000  -0.000   0.003  -0.000  -0.000
  0.000  -0.000   0.000  -0.000  -0.000  -0.000  -0.000   0.000  -0.000   0.000  -0.000   0.000  -0.000   0.000   0.003  -0.000


------------------------ aborting loop because EDIFF is reached ----------------------------------------


 


 total charge     
 
# of ion     s       p       d       tot
----------------------------------------
  1        0.499   0.500   8.312   9.311
  2        0.499   0.500   8.312   9.311
  3        0.499   0.500   8.312   9.311
  4        0.499   0.500   8.312   9.311
------------------------------------------------
tot        1.996   1.998  33.248  37.243
 


 magnetization (x)
 
# of ion     s       p       d       tot
----------------------------------------
  1       -0.006  -0.026   0.673   0.641
  2       -0.006  -0.026   0.673   0.641
  3       -0.006  -0.026   0.673   0.641
  4       -0.006  -0.026   0.673   0.641
------------------------------------------------
tot       -0.026  -0.103   2.694   2.565
 
    CHARGE:  cpu time    0.04: real time    0.04
    FORLOC:  cpu time    0.00: real time    0.00
    FORNL :  cpu time    0.18: real time    0.18
    STRESS:  cpu time    0.37: real time    0.37
    FORCOR:  cpu time    0.00: real time    0.01
    FORHAR:  cpu time    0.00: real time    0.00
    MIXING:  cpu time    0.00: real time    0.00
    OFIELD:  cpu time    0.00: real time    0.00

  FORCE on cell =-STRESS in cart. coord.  units (eV):
  Direction    XX          YY          ZZ          XY          YZ          ZX
  --------------------------------------------------------------------------------------
  Alpha Z   187.88201   187.88201   187.88201
  Ewald   -1252.15473 -1252.15473 -1252.15473    -0.00000     0.00000    -0.00000
  Hartree   298.58776   298.58776   298.58776    -0.00000    -0.00000    -0.00000
  E(xc)    -220.20803  -220.20803  -220.20803     0.00000     0.00000     0.00000
  Local       0.47471     0.47471     0.47471     0.00000    -0.00000     0.00000
  n-local   -28.21341   -35.04711   -30.06858     5.59196     3.32693     2.89398
  augment   704.34009   704.34009   704.34009     0.00000     0.00000     0.00000
  Kinetic   319.42380   310.43028   306.61994     1.93132     1.31783     0.73838
  Fock        0.00000     0.00000     0.00000     0.00000     0.00000     0.00000
  -------------------------------------------------------------------------------------
  Total      -0.02989    -0.02989    -0.02989     0.00000     0.00000     0.00000
  in kB      -1.10250    -1.10250    -1.10250     0.00000     0.00000     0.00000
  external pressure =       -1.10 kB  Pullay stress =        0.00 kB


 VOLUME and BASIS-vectors are now :
 -----------------------------------------------------------------------------
  energy-cutoff  :      400.00
  volume of cell :       43.43
      direct lattice vectors                 reciprocal lattice vectors
     3.515064389  0.000000000  0.000000000     0.284489810  0.000000000  0.000000000
     0.000000000  3.515064389  0.000000000     0.000000000  0.284489810  0.000000000
     0.000000000  0.000000000  3.515064389     0.000000000  0.000000000  0.284489810

  length of vectors
     3.515064389  3.515064389  3.515064389     0.284489810  0.284489810  0.284489810


 FORCES acting on ions
    electron-ion (+dipol)            ewald-force                    non-local-force                 convergence-correction
 -----------------------------------------------------------------------------------------------
   -.424E-13 -.187E-13 -.822E-13   -.855E-14 0.652E-14 -.781E-14   0.414E-24 -.620E-24 0.103E-24   0.313E-13 0.151E-13 -.272E-14
   -.418E-13 0.786E-12 0.724E-12   -.838E-14 -.458E-14 0.527E-14   0.439E-24 -.181E-24 -.336E-24   0.252E-13 0.615E-14 0.155E-13
   0.769E-12 -.180E-13 -.803E-12   0.663E-14 0.437E-14 0.536E-14   0.620E-24 0.620E-24 -.207E-24   0.838E-14 0.151E-13 -.640E-14
   0.761E-12 0.766E-12 0.690E-12   0.679E-14 -.673E-14 -.125E-14   0.000E+00 -.142E-24 -.207E-24   0.241E-13 0.136E-13 -.731E-14
 -----------------------------------------------------------------------------------------------
   0.145E-11 0.151E-11 0.528E-12   -.351E-14 -.419E-15 0.157E-14   0.147E-23 -.323E-24 -.646E-24   0.890E-13 0.499E-13 -.920E-15
 
 
 POSITION                                       TOTAL-FORCE (eV/Angst)
 -----------------------------------------------------------------------------------
      0.00000      0.00000      0.00000         0.000000     -0.000000     -0.000000
      0.00000      1.75753      1.75753         0.000000     -0.000000      0.000000
      1.75753      0.00000      1.75753        -0.000000      0.000000      0.000000
      1.75753      1.75753      0.00000        -0.000000      0.000000     -0.000000
 -----------------------------------------------------------------------------------
    total drift:                                0.000000      0.000000      0.000000


--------------------------------------------------------------------------------------------------------



  FREE ENERGIE OF THE ION-ELECTRON SYSTEM (eV)
  ---------------------------------------------------
  free  energy   TOTEN  =       -21.88597869 eV

  energy  without entropy=      -21.87769983  energy(sigma->0) =      -21.88321907
 


--------------------------------------------------------------------------------------------------------


    POTLOK:  cpu time    0.74: real time    0.74


--------------------------------------------------------------------------------------------------------


 writing wavefunctions
     LOOP+:  cpu time   10.65: real time   10.74
    4ORBIT:  cpu time    0.00: real time    0.00
 


 total charge     
 
# of ion     s       p       d       tot
----------------------------------------
  1        0.499   0.500   8.312   9.311
  2        0.499   0.500   8.312   9.311
  3        0.499   0.500   8.312   9.311
  4        0.499   0.500   8.312   9.311
------------------------------------------------
tot        1.996   1.998  33.248  37.243
 


 magnetization (x)
 
# of ion     s       p       d       tot
----------------------------------------
  1       -0.006  -0.026   0.673   0.641
  2       -0.006  -0.026   0.673   0.641
  3       -0.006  -0.026   0.673   0.641
  4       -0.006  -0.026   0.673   0.641
------------------------------------------------
tot       -0.026  -0.103   2.694   2.565
 

 total amount of memory used by VASP on root node    42296. kBytes
========================================================================

   base      :      30000. kBytes
   nonl-proj :       6534. kBytes
   fftplans  :        161. kBytes
   grid      :        768. kBytes
   one-center:        124. kBytes
   wavefun   :       4709. kBytes
 
  
  
 General timing and accounting informations for this job:
 ========================================================
  
                  Total CPU time used (sec):       12.224
                            User time (sec):       11.984
                          System time (sec):        0.240
                         Elapsed time (sec):       13.324
  
                   Maximum memory used (kb):       61828.
                   Average memory used (kb):           0.
  
                          Minor page faults:        12995
                          Major page faults:            7
                 Voluntary context switches:          133
